
                    DL_POLY Classic 1.2

                              Running on    8 nodes


 ************************************************************************************************************************
 ************************************************************************************************************************
 ************************************************************************************************************************
 ***************     TEST19: SODIUM CHLORIDE MOLECULE IN WATER                                            ***************
 ************************************************************************************************************************
 ************************************************************************************************************************
 ************************************************************************************************************************


 SIMULATION CONTROL PARAMETERS


 velocity verlet integration selected

 Nose-Hoover  (Melchionna) isotropic N-P-T 
 thermostat relaxation time       1.0000E+00
 barostat relaxation time         5.0000E+00

 simulation temperature           2.9500E+02

 simulation pressure (katm)       0.0000E+00

 selected number of timesteps         5000

 equilibration period                 1000

 multiple timestep interval              1

 temperature scaling on
 temperature scaling interval           10

 data printing interval                100

 data stacking interval                100

 statistics file interval              100


 radial distribution functions on 
 g(r) collection interval               10
 g(r) bin width                   5.0000E-02

 simulation timestep              5.0000E-04

 real space cut off               8.0000E+00

 border width of Verlet shell     1.2000E+00

 Ewald sum  precision             1.0000E-05

 Electrostatics : Ewald sum  

 Ewald convergence parameter      3.6037E-01
 Ewald kmax1 kmax2 kmax3         6    6    6

 force capping :                  1.0000E+04 kT/A

 tolerance for SHAKE              1.0000E-08

 tolerance for Quaternions        1.0000E-05

 g(r) printing option on      

 user allocated job time (d)     11.5741

 job closure time        (s)      20.000


SYSTEM SPECIFICATION

 energy units=kcal/ mol 


 number of molecular types               3

 molecular species type                  1


 name of species:             SODIUM CHLORIDE                         

 number of molecules                     1

 number of atoms/sites                   2


 atomic characteristics:

                      site     name          mass        charge    repeat    freeze

                         1     Na+         22.98980     1.00000         1         0
                         2     Cl-         35.45300    -1.00000         1         0

 molecular species type                  2


 name of species:             SPC WATER                               

 number of molecules                    70

 number of atoms/sites                   3


 atomic characteristics:

                      site     name          mass        charge    repeat    freeze

                         3     OW          15.99940    -0.73000         1         0
                         4     HW           1.00797     0.36500         1         0
                         5     HW           1.00797     0.36500         1         0

 number of bond constraints              3


 constraint bond details:

                          index     index  bondlength

                              1         2    1.030000
                              1         3    1.030000
                              2         3    1.681982

 molecular species type                  3


 name of species:             SPC WATER                               

 number of molecules                    69

 number of atoms/sites                   3


 atomic characteristics:

                      site     name          mass        charge    repeat    freeze

                         6     OW          15.99940    -0.73000         1         0
                         7     HW           1.00797     0.36500         1         0
                         8     HW           1.00797     0.36500         1         0

 number of rigid units                   1

 rigid body details:

                           unit   indices

                              1         1         2         3


 number of specified pair potentials         6


                atom 1  atom 2      key                              parameters


                OW      OW        lj       1.60000E-01  3.19600E+00
                Na+     Na+       lj       1.30000E-01  2.35000E+00
                Cl-     Cl-       lj       1.00000E-01  4.45000E+00
                OW      Na+       lj       1.44222E-01  2.77300E+00
                OW      Cl-       lj       1.26491E-01  3.82300E+00
                Na+     Cl-       lj       1.14018E-01  3.40000E+00

  *** warning - undefined atom-atom interactions set to zero ***

 configuration file name: 

          TEST CASE 19: SODIUM CHLORIDE MOLECULE IN WATER                                 


 selected image convention               1


 simulation cell vectors


                        17.240198    0.000000    0.000000
                         0.000000   17.240198    0.000000
                         0.000000    0.000000   17.240198


 system volume            5124.20783104    


             summary of rigid body set up

 group of type          1
             total mass           18.0153400000
             rot. inertia          1.9406780299        1.3443587878        0.5963192421

             site        a coord        b coord        c coord
                1    0.00000E+00   -6.45811E-02    7.73263E-06
                2    0.00000E+00    5.12501E-01   -8.16679E-01
                3    0.00000E+00    5.12587E-01    8.16556E-01

 shared atoms from passcon                       8


 total degrees of freedom                       837.
 rotational degrees of freedom                  207.
 shell pseudo degrees of freedom                  0.


 sample of starting configuration

      i       x(i)        y(i)        z(i)       vx(i)       vy(i)       vz(i)       fx(i)       fy(i)       fz(i)


      1 -6.6485E+00  8.2894E+00  4.5250E+00  6.3927E+00 -1.8986E+00 -3.4647E+00 -4.0732E+03  1.9602E+03 -1.9973E+03
     22 -6.0378E+00  4.8761E+00  3.1558E-01  5.2991E+00  1.9390E+00  6.9198E+00 -1.0723E+03 -3.8666E+03  3.3718E+03
     43  7.3386E+00 -5.3702E+00 -6.9293E+00  2.7239E-01 -1.0222E+01 -1.7065E+00  2.8810E+03  3.8240E+02  9.8942E+02
     64  7.8783E-01  9.6103E-02 -5.8891E+00 -2.2264E+01 -4.6062E+00 -2.8226E+00  2.5196E+03  5.4007E+03 -2.6466E+03
     85 -4.5461E+00  6.3527E+00 -7.8922E+00  7.9990E+00  4.5604E+00  3.0366E-01 -5.0570E+03  2.2791E+03  2.7874E+03
    106 -5.3835E+00 -2.3992E+00  3.5467E+00 -3.8380E+00 -3.9630E+00 -2.3973E-01 -3.7376E+03  2.1846E+03  3.7047E+03
    127 -4.1347E+00  3.2119E+00  3.9670E+00  4.1665E+00 -2.0049E+01  2.5364E+01  4.8863E+03 -6.5698E+03  5.2849E+02
    148  7.4392E+00 -8.6110E+00  1.3517E+00 -1.0740E+01 -1.3653E+01 -4.5635E+00  3.8919E+03 -4.9905E+03 -2.4764E+03
    169 -5.0976E+00 -6.6210E+00  5.3606E+00 -2.2125E+00 -1.8889E+00  1.8306E+00 -1.7470E+03  7.7497E+03  1.5645E+03
    190  5.3193E+00 -9.0548E-01 -5.1886E+00  4.3812E+00  1.8996E+01 -9.3388E-01  6.4396E+03 -1.7637E+03 -5.9720E+03
    211 -2.2200E+00  5.8109E+00 -3.1123E+00  4.3367E+00  1.7792E+00  1.1652E+01 -5.2887E+03  1.8075E+03 -1.3155E+02
    232  2.6529E+00  1.0496E+00  4.6007E+00 -9.3098E+00  1.5124E+00  1.7699E+01  3.1557E+03  2.9664E+03  2.5631E+02
    253  4.5395E+00  6.9261E+00 -6.7225E+00 -6.3764E+00 -2.2527E+00 -5.2265E+00 -4.7990E+03  1.9083E+03  3.5867E+03
    274 -2.4505E+00 -5.7777E-01 -8.2529E+00  5.0315E+00 -5.0846E+00 -5.2975E+00 -1.7934E+03 -2.5717E+03 -1.9783E+03
    295 -7.2914E+00  3.5978E+00  2.2276E+00  2.7217E+01 -4.1182E+01 -7.6621E+00 -1.9833E+03 -2.8143E+02  2.2670E+03
    316  2.2059E+00  7.0426E+00 -2.6336E-02  4.9835E+00 -1.2869E+01  5.4423E+00 -1.7456E+03  3.4364E+02 -3.2443E+03
    337 -3.4931E+00 -8.1599E+00  8.4916E+00 -1.0959E+00  2.3201E+01  2.9182E+01  2.7847E+03  3.3398E+02  1.5546E+03
    358  1.1302E+00  5.6724E+00 -6.1977E+00  1.3536E+01 -1.9009E+01 -2.4011E+01 -4.7126E+03 -9.4088E+02 -1.3851E+03
    379  6.7274E+00  3.6538E+00 -1.8574E+00 -3.2381E+00  3.9974E+00 -7.7865E+00 -9.5486E+02 -1.5419E+03  1.1959E+03
    400 -1.1234E+00  4.2161E+00 -1.6526E+00  4.3739E+00 -1.2635E+00  2.5452E+00 -1.4090E+03  3.8007E+03 -4.9988E+03


long range correction for: vdw energy    -0.109166E+02
                         : vdw pressure  -0.291737E+00

 time elapsed since job start =           0.253 seconds

 ------------------------------------------------------------------------------------------------------------------------

     step     eng_tot    temp_tot     eng_cfg     eng_vdw     eng_cou     eng_bnd     eng_ang     eng_dih     eng_tet
 time          eng_pv    temp_rot     vir_cfg     vir_vdw     vir_cou     vir_bnd     vir_ang     vir_con     vir_tet
 cpu time      volume    temp_shl     eng_shl     vir_shl       alpha        beta       gamma     vir_pmf       press

 ------------------------------------------------------------------------------------------------------------------------
        1 -8.6870E+02  2.9465E+02 -1.1137E+03  9.7102E+01 -1.2109E+03  0.0000E+00  0.0000E+00  0.0000E+00  0.0000E+00
   0.500f -8.7650E+02  2.7709E+02  3.9953E+02 -3.6458E+03  1.2107E+03  0.0000E+00  0.0000E+00  1.6440E+03  0.0000E+00
   0.442s  5.1242E+03  0.0000E+00  0.0000E+00  0.0000E+00  9.0000E+01  9.0000E+01  9.0000E+01  0.0000E+00 -1.0444E-01

  rolling -8.6870E+02  2.9465E+02 -1.1137E+03  9.7102E+01 -1.2109E+03  0.0000E+00  0.0000E+00  0.0000E+00  0.0000E+00
 averages -8.7650E+02  2.7709E+02  3.9953E+02 -3.6458E+03  1.2107E+03  0.0000E+00  0.0000E+00  1.6440E+03  0.0000E+00
           5.1242E+03  0.0000E+00  0.0000E+00  0.0000E+00  9.0000E+01  9.0000E+01  9.0000E+01  0.0000E+00 -1.0444E-01
 ------------------------------------------------------------------------------------------------------------------------
      100 -8.6069E+02  2.9777E+02 -1.1083E+03  8.8836E+01 -1.1972E+03  0.0000E+00  0.0000E+00  0.0000E+00  0.0000E+00
  50.000f -8.7849E+02  2.8004E+02  4.3347E+02 -3.5434E+03  1.1968E+03  0.0000E+00  0.0000E+00  1.6166E+03  0.0000E+00
  13.251s  5.1242E+03  0.0000E+00  0.0000E+00  0.0000E+00  9.0000E+01  9.0000E+01  9.0000E+01  0.0000E+00 -2.3813E-01

  rolling -8.5954E+02  2.9458E+02 -1.1045E+03  9.5499E+01 -1.2000E+03  0.0000E+00  0.0000E+00  0.0000E+00  0.0000E+00
 averages -8.5724E+02  2.7462E+02  3.7010E+02 -3.6269E+03  1.1998E+03  0.0000E+00  0.0000E+00  1.6277E+03  0.0000E+00
           5.1242E+03  0.0000E+00  0.0000E+00  0.0000E+00  9.0000E+01  9.0000E+01  9.0000E+01  0.0000E+00  3.0796E-02
 ------------------------------------------------------------------------------------------------------------------------
      200 -8.7048E+02  2.9419E+02 -1.1151E+03  8.7825E+01 -1.2030E+03  0.0000E+00  0.0000E+00  0.0000E+00  0.0000E+00
 100.000f -9.0780E+02  2.6657E+02  4.9163E+02 -3.5394E+03  1.2029E+03  0.0000E+00  0.0000E+00  1.6485E+03  0.0000E+00
  26.126s  5.1242E+03  0.0000E+00  0.0000E+00  0.0000E+00  9.0000E+01  9.0000E+01  9.0000E+01  0.0000E+00 -4.9939E-01

  rolling -8.6759E+02  2.9548E+02 -1.1133E+03  8.2217E+01 -1.1955E+03  0.0000E+00  0.0000E+00  0.0000E+00  0.0000E+00
 averages -9.1767E+02  2.8023E+02  5.2643E+02 -3.4599E+03  1.1953E+03  0.0000E+00  0.0000E+00  1.6187E+03  0.0000E+00
           5.1242E+03  0.0000E+00  0.0000E+00  0.0000E+00  9.0000E+01  9.0000E+01  9.0000E+01  0.0000E+00 -6.7006E-01
 ------------------------------------------------------------------------------------------------------------------------
      300 -8.6618E+02  2.9667E+02 -1.1129E+03  1.2625E+02 -1.2392E+03  0.0000E+00  0.0000E+00  0.0000E+00  0.0000E+00
 150.000f -7.7646E+02  3.2670E+02  8.9905E+01 -4.0623E+03  1.2380E+03  0.0000E+00  0.0000E+00  1.6731E+03  0.0000E+00
  39.063s  5.1242E+03  0.0000E+00  0.0000E+00  0.0000E+00  9.0000E+01  9.0000E+01  9.0000E+01  0.0000E+00  1.2005E+00

  rolling -8.6095E+02  2.9480E+02 -1.1061E+03  1.0772E+02 -1.2138E+03  0.0000E+00  0.0000E+00  0.0000E+00  0.0000E+00
 averages -8.1867E+02  2.7417E+02  2.5072E+02 -3.8131E+03  1.2133E+03  0.0000E+00  0.0000E+00  1.6586E+03  0.0000E+00
           5.1242E+03  0.0000E+00  0.0000E+00  0.0000E+00  9.0000E+01  9.0000E+01  9.0000E+01  0.0000E+00  5.6575E-01
 ------------------------------------------------------------------------------------------------------------------------
      400 -8.5445E+02  2.9820E+02 -1.1024E+03  9.2773E+01 -1.1952E+03  0.0000E+00  0.0000E+00  0.0000E+00  0.0000E+00
 200.000f -8.3802E+02  3.0405E+02  3.2163E+02 -3.6191E+03  1.1950E+03  0.0000E+00  0.0000E+00  1.5637E+03  0.0000E+00
  51.977s  5.1242E+03  0.0000E+00  0.0000E+00  0.0000E+00  9.0000E+01  9.0000E+01  9.0000E+01  0.0000E+00  2.1983E-01

  rolling -8.5948E+02  2.9430E+02 -1.1042E+03  1.1372E+02 -1.2180E+03  0.0000E+00  0.0000E+00  0.0000E+00  0.0000E+00
 averages -7.9599E+02  2.9840E+02  1.7628E+02 -3.8946E+03  1.2171E+03  0.0000E+00  0.0000E+00  1.6386E+03  0.0000E+00
           5.1242E+03  0.0000E+00  0.0000E+00  0.0000E+00  9.0000E+01  9.0000E+01  9.0000E+01  0.0000E+00  8.4962E-01
 ------------------------------------------------------------------------------------------------------------------------
      500 -8.6195E+02  2.9012E+02 -1.1032E+03  8.7729E+01 -1.1910E+03  0.0000E+00  0.0000E+00  0.0000E+00  0.0000E+00
 250.000f -8.6528E+02  2.7042E+02  3.8134E+02 -3.5657E+03  1.1908E+03  0.0000E+00  0.0000E+00  1.5653E+03  0.0000E+00
   1.082m  5.1242E+03  0.0000E+00  0.0000E+00  0.0000E+00  9.0000E+01  9.0000E+01  9.0000E+01  0.0000E+00 -4.4669E-02

  rolling -8.6401E+02  2.9508E+02 -1.1094E+03  9.0502E+01 -1.1999E+03  0.0000E+00  0.0000E+00  0.0000E+00  0.0000E+00
 averages -8.7068E+02  2.9758E+02  3.8842E+02 -3.5965E+03  1.1996E+03  0.0000E+00  0.0000E+00  1.6023E+03  0.0000E+00
           5.1242E+03  0.0000E+00  0.0000E+00  0.0000E+00  9.0000E+01  9.0000E+01  9.0000E+01  0.0000E+00 -8.9281E-02
 ------------------------------------------------------------------------------------------------------------------------
      600 -8.7889E+02  2.8629E+02 -1.1170E+03  9.9018E+01 -1.2160E+03  0.0000E+00  0.0000E+00  0.0000E+00  0.0000E+00
 300.000f -9.0057E+02  3.1335E+02  4.1230E+02 -3.6999E+03  1.2161E+03  0.0000E+00  0.0000E+00  1.6488E+03  0.0000E+00
   1.299m  5.1242E+03  0.0000E+00  0.0000E+00  0.0000E+00  9.0000E+01  9.0000E+01  9.0000E+01  0.0000E+00 -2.9001E-01

  rolling -8.7264E+02  2.9601E+02 -1.1188E+03  9.4925E+01 -1.2137E+03  0.0000E+00  0.0000E+00  0.0000E+00  0.0000E+00
 averages -8.9184E+02  2.8712E+02  4.3182E+02 -3.6534E+03  1.2135E+03  0.0000E+00  0.0000E+00  1.6370E+03  0.0000E+00
           5.1242E+03  0.0000E+00  0.0000E+00  0.0000E+00  9.0000E+01  9.0000E+01  9.0000E+01  0.0000E+00 -2.5684E-01
 ------------------------------------------------------------------------------------------------------------------------
      700 -8.6614E+02  2.8708E+02 -1.1049E+03  8.7070E+01 -1.1920E+03  0.0000E+00  0.0000E+00  0.0000E+00  0.0000E+00
 350.000f -9.1087E+02  2.9130E+02  4.9189E+02 -3.5257E+03  1.1913E+03  0.0000E+00  0.0000E+00  1.5818E+03  0.0000E+00
   1.514m  5.1242E+03  0.0000E+00  0.0000E+00  0.0000E+00  9.0000E+01  9.0000E+01  9.0000E+01  0.0000E+00 -5.9862E-01

  rolling -8.5730E+02  2.9418E+02 -1.1020E+03  9.5024E+01 -1.1970E+03  0.0000E+00  0.0000E+00  0.0000E+00  0.0000E+00
 averages -8.6848E+02  2.8421E+02  4.0594E+02 -3.6398E+03  1.1965E+03  0.0000E+00  0.0000E+00  1.6237E+03  0.0000E+00
           5.1242E+03  0.0000E+00  0.0000E+00  0.0000E+00  9.0000E+01  9.0000E+01  9.0000E+01  0.0000E+00 -1.4956E-01
 ------------------------------------------------------------------------------------------------------------------------
 ------------------------------------------------------------------------------------------------------------------------

     step     eng_tot    temp_tot     eng_cfg     eng_vdw     eng_cou     eng_bnd     eng_ang     eng_dih     eng_tet
 time          eng_pv    temp_rot     vir_cfg     vir_vdw     vir_cou     vir_bnd     vir_ang     vir_con     vir_tet
 cpu time      volume    temp_shl     eng_shl     vir_shl       alpha        beta       gamma     vir_pmf       press

 ------------------------------------------------------------------------------------------------------------------------
      800 -8.5568E+02  2.9329E+02 -1.0996E+03  8.4792E+01 -1.1844E+03  0.0000E+00  0.0000E+00  0.0000E+00  0.0000E+00
 400.000f -8.8710E+02  2.5790E+02  4.7599E+02 -3.4810E+03  1.1835E+03  0.0000E+00  0.0000E+00  1.5825E+03  0.0000E+00
   1.730m  5.1242E+03  0.0000E+00  0.0000E+00  0.0000E+00  9.0000E+01  9.0000E+01  9.0000E+01  0.0000E+00 -4.2044E-01

  rolling -8.6619E+02  2.9456E+02 -1.1112E+03  8.4989E+01 -1.1961E+03  0.0000E+00  0.0000E+00  0.0000E+00  0.0000E+00
 averages -9.1248E+02  2.8886E+02  5.1001E+02 -3.4915E+03  1.1955E+03  0.0000E+00  0.0000E+00  1.5790E+03  0.0000E+00
           5.1242E+03  0.0000E+00  0.0000E+00  0.0000E+00  9.0000E+01  9.0000E+01  9.0000E+01  0.0000E+00 -6.1949E-01
 ------------------------------------------------------------------------------------------------------------------------
      900 -8.5814E+02  2.9502E+02 -1.1035E+03  8.7760E+01 -1.1913E+03  0.0000E+00  0.0000E+00  0.0000E+00  0.0000E+00
 450.000f -8.8857E+02  2.6992E+02  4.7096E+02 -3.5196E+03  1.1900E+03  0.0000E+00  0.0000E+00  1.6157E+03  0.0000E+00
   1.940m  5.1242E+03  0.0000E+00  0.0000E+00  0.0000E+00  9.0000E+01  9.0000E+01  9.0000E+01  0.0000E+00 -4.0711E-01

  rolling -8.5493E+02  2.9526E+02 -1.1005E+03  8.4735E+01 -1.1852E+03  0.0000E+00  0.0000E+00  0.0000E+00  0.0000E+00
 averages -8.8618E+02  2.7998E+02  4.6971E+02 -3.4781E+03  1.1840E+03  0.0000E+00  0.0000E+00  1.5750E+03  0.0000E+00
           5.1242E+03  0.0000E+00  0.0000E+00  0.0000E+00  9.0000E+01  9.0000E+01  9.0000E+01  0.0000E+00 -4.1828E-01
 ------------------------------------------------------------------------------------------------------------------------
     1000 -8.6782E+02  2.9262E+02 -1.1112E+03  8.4886E+01 -1.1961E+03  0.0000E+00  0.0000E+00  0.0000E+00  0.0000E+00
 500.000f -9.0836E+02  2.9337E+02  4.8767E+02 -3.4878E+03  1.1945E+03  0.0000E+00  0.0000E+00  1.5898E+03  0.0000E+00
   2.150m  5.1242E+03  0.0000E+00  0.0000E+00  0.0000E+00  9.0000E+01  9.0000E+01  9.0000E+01  0.0000E+00 -5.4252E-01

  rolling -8.6399E+02  2.9550E+02 -1.1097E+03  9.0625E+01 -1.2004E+03  0.0000E+00  0.0000E+00  0.0000E+00  0.0000E+00
 averages -8.8880E+02  2.7155E+02  4.5425E+02 -3.5610E+03  1.1991E+03  0.0000E+00  0.0000E+00  1.6285E+03  0.0000E+00
           5.1242E+03  0.0000E+00  0.0000E+00  0.0000E+00  9.0000E+01  9.0000E+01  9.0000E+01  0.0000E+00 -3.3203E-01
 ------------------------------------------------------------------------------------------------------------------------


 switching off temperature scaling at step   1000


 ------------------------------------------------------------------------------------------------------------------------
     1100 -8.6583E+02  2.9172E+02 -1.1084E+03  8.0217E+01 -1.1887E+03  0.0000E+00  0.0000E+00  0.0000E+00  0.0000E+00
 550.000f -9.2646E+02  3.0290E+02  5.4246E+02 -3.4246E+03  1.1871E+03  0.0000E+00  0.0000E+00  1.5782E+03  0.0000E+00
   2.364m  5.1239E+03  0.0000E+00  0.0000E+00  0.0000E+00  9.0000E+01  9.0000E+01  9.0000E+01  0.0000E+00 -8.1116E-01

  rolling -8.6582E+02  3.0138E+02 -1.1165E+03  8.1583E+01 -1.1980E+03  0.0000E+00  0.0000E+00  0.0000E+00  0.0000E+00
 averages -9.2392E+02  3.1858E+02  5.4452E+02 -3.4434E+03  1.1960E+03  0.0000E+00  0.0000E+00  1.5943E+03  0.0000E+00
           5.1241E+03  0.0000E+00  0.0000E+00  0.0000E+00  9.0000E+01  9.0000E+01  9.0000E+01  0.0000E+00 -7.7741E-01
 ------------------------------------------------------------------------------------------------------------------------
     1200 -8.6581E+02  2.8552E+02 -1.1033E+03  8.1268E+01 -1.1846E+03  0.0000E+00  0.0000E+00  0.0000E+00  0.0000E+00
 600.000f -9.1897E+02  2.8064E+02  5.1883E+02 -3.4303E+03  1.1833E+03  0.0000E+00  0.0000E+00  1.5791E+03  0.0000E+00
   2.580m  5.1231E+03  0.0000E+00  0.0000E+00  0.0000E+00  9.0000E+01  9.0000E+01  9.0000E+01  0.0000E+00 -7.1105E-01

  rolling -8.6581E+02  2.8569E+02 -1.1034E+03  8.4150E+01 -1.1876E+03  0.0000E+00  0.0000E+00  0.0000E+00  0.0000E+00
 averages -9.1259E+02  2.9236E+02  4.9519E+02 -3.4731E+03  1.1864E+03  0.0000E+00  0.0000E+00  1.5781E+03  0.0000E+00
           5.1236E+03  0.0000E+00  0.0000E+00  0.0000E+00  9.0000E+01  9.0000E+01  9.0000E+01  0.0000E+00 -6.2568E-01
 ------------------------------------------------------------------------------------------------------------------------
     1300 -8.6585E+02  2.9224E+02 -1.1089E+03  7.1699E+01 -1.1806E+03  0.0000E+00  0.0000E+00  0.0000E+00  0.0000E+00
 650.000f -9.5622E+02  2.7896E+02  6.4233E+02 -3.3048E+03  1.1798E+03  0.0000E+00  0.0000E+00  1.5745E+03  0.0000E+00
   2.797m  5.1218E+03  0.0000E+00  0.0000E+00  0.0000E+00  9.0000E+01  9.0000E+01  9.0000E+01  0.0000E+00 -1.2094E+00

  rolling -8.6582E+02  2.9327E+02 -1.1097E+03  7.6326E+01 -1.1861E+03  0.0000E+00  0.0000E+00  0.0000E+00  0.0000E+00
 averages -9.4597E+02  2.9553E+02  6.0659E+02 -3.3633E+03  1.1850E+03  0.0000E+00  0.0000E+00  1.5743E+03  0.0000E+00
           5.1225E+03  0.0000E+00  0.0000E+00  0.0000E+00  9.0000E+01  9.0000E+01  9.0000E+01  0.0000E+00 -1.0725E+00
 ------------------------------------------------------------------------------------------------------------------------
     1400 -8.6576E+02  2.9111E+02 -1.1079E+03  7.9522E+01 -1.1874E+03  0.0000E+00  0.0000E+00  0.0000E+00  0.0000E+00
 700.000f -9.2283E+02  2.6737E+02  5.4531E+02 -3.4127E+03  1.1868E+03  0.0000E+00  0.0000E+00  1.5616E+03  0.0000E+00
   3.012m  5.1197E+03  0.0000E+00  0.0000E+00  0.0000E+00  9.0000E+01  9.0000E+01  9.0000E+01  0.0000E+00 -7.6378E-01

  rolling -8.6580E+02  2.9667E+02 -1.1126E+03  7.3409E+01 -1.1860E+03  0.0000E+00  0.0000E+00  0.0000E+00  0.0000E+00
 averages -9.4706E+02  3.0693E+02  6.1087E+02 -3.3296E+03  1.1852E+03  0.0000E+00  0.0000E+00  1.5356E+03  0.0000E+00
           5.1208E+03  0.0000E+00  0.0000E+00  0.0000E+00  9.0000E+01  9.0000E+01  9.0000E+01  0.0000E+00 -1.0876E+00
 ------------------------------------------------------------------------------------------------------------------------
     1500 -8.6576E+02  2.8560E+02 -1.1033E+03  9.4996E+01 -1.1983E+03  0.0000E+00  0.0000E+00  0.0000E+00  0.0000E+00
 750.000f -8.6480E+02  2.8392E+02  3.5530E+02 -3.6241E+03  1.1974E+03  0.0000E+00  0.0000E+00  1.5268E+03  0.0000E+00
   3.229m  5.1170E+03  0.0000E+00  0.0000E+00  0.0000E+00  9.0000E+01  9.0000E+01  9.0000E+01  0.0000E+00  1.3177E-02

  rolling -8.6579E+02  2.9146E+02 -1.1082E+03  9.0783E+01 -1.1990E+03  0.0000E+00  0.0000E+00  0.0000E+00  0.0000E+00
 averages -8.9570E+02  2.8752E+02  4.5613E+02 -3.5616E+03  1.1984E+03  0.0000E+00  0.0000E+00  1.5682E+03  0.0000E+00
           5.1184E+03  0.0000E+00  0.0000E+00  0.0000E+00  9.0000E+01  9.0000E+01  9.0000E+01  0.0000E+00 -4.0017E-01
 ------------------------------------------------------------------------------------------------------------------------
 ------------------------------------------------------------------------------------------------------------------------

     step     eng_tot    temp_tot     eng_cfg     eng_vdw     eng_cou     eng_bnd     eng_ang     eng_dih     eng_tet
 time          eng_pv    temp_rot     vir_cfg     vir_vdw     vir_cou     vir_bnd     vir_ang     vir_con     vir_tet
 cpu time      volume    temp_shl     eng_shl     vir_shl       alpha        beta       gamma     vir_pmf       press

 ------------------------------------------------------------------------------------------------------------------------
     1600 -8.6577E+02  2.9617E+02 -1.1121E+03  1.1339E+02 -1.2254E+03  0.0000E+00  0.0000E+00  0.0000E+00  0.0000E+00
 800.000f -8.2574E+02  2.9748E+02  2.5024E+02 -3.8686E+03  1.2244E+03  0.0000E+00  0.0000E+00  1.6325E+03  0.0000E+00
   3.446m  5.1144E+03  0.0000E+00  0.0000E+00  0.0000E+00  9.0000E+01  9.0000E+01  9.0000E+01  0.0000E+00  5.3633E-01

  rolling -8.6576E+02  2.9194E+02 -1.1086E+03  1.0751E+02 -1.2161E+03  0.0000E+00  0.0000E+00  0.0000E+00  0.0000E+00
 averages -8.3471E+02  2.7929E+02  2.7756E+02 -3.7907E+03  1.2151E+03  0.0000E+00  0.0000E+00  1.6008E+03  0.0000E+00
           5.1157E+03  0.0000E+00  0.0000E+00  0.0000E+00  9.0000E+01  9.0000E+01  9.0000E+01  0.0000E+00  4.1615E-01
 ------------------------------------------------------------------------------------------------------------------------
     1700 -8.6579E+02  2.9411E+02 -1.1103E+03  8.7461E+01 -1.1978E+03  0.0000E+00  0.0000E+00  0.0000E+00  0.0000E+00
 850.000f -9.0014E+02  2.5190E+02  4.8888E+02 -3.5150E+03  1.1971E+03  0.0000E+00  0.0000E+00  1.5647E+03  0.0000E+00
   3.664m  5.1120E+03  0.0000E+00  0.0000E+00  0.0000E+00  9.0000E+01  9.0000E+01  9.0000E+01  0.0000E+00 -4.6190E-01

  rolling -8.6575E+02  2.9660E+02 -1.1124E+03  1.0112E+02 -1.2135E+03  0.0000E+00  0.0000E+00  0.0000E+00  0.0000E+00
 averages -8.5910E+02  2.5766E+02  3.6754E+02 -3.7027E+03  1.2122E+03  0.0000E+00  0.0000E+00  1.6223E+03  0.0000E+00
           5.1131E+03  0.0000E+00  0.0000E+00  0.0000E+00  9.0000E+01  9.0000E+01  9.0000E+01  0.0000E+00  8.8440E-02
 ------------------------------------------------------------------------------------------------------------------------
     1800 -8.6578E+02  2.9384E+02 -1.1101E+03  8.5923E+01 -1.1960E+03  0.0000E+00  0.0000E+00  0.0000E+00  0.0000E+00
 900.000f -9.0637E+02  2.7469E+02  4.9779E+02 -3.4859E+03  1.1953E+03  0.0000E+00  0.0000E+00  1.5037E+03  0.0000E+00
   3.881m  5.1093E+03  0.0000E+00  0.0000E+00  0.0000E+00  9.0000E+01  9.0000E+01  9.0000E+01  0.0000E+00 -5.4593E-01

  rolling -8.6577E+02  2.9609E+02 -1.1119E+03  8.1237E+01 -1.1932E+03  0.0000E+00  0.0000E+00  0.0000E+00  0.0000E+00
 averages -9.2640E+02  2.7732E+02  5.6055E+02 -3.4257E+03  1.1925E+03  0.0000E+00  0.0000E+00  1.5218E+03  0.0000E+00
           5.1107E+03  0.0000E+00  0.0000E+00  0.0000E+00  9.0000E+01  9.0000E+01  9.0000E+01  0.0000E+00 -8.1458E-01
 ------------------------------------------------------------------------------------------------------------------------
     1900 -8.6576E+02  2.9739E+02 -1.1130E+03  1.0949E+02 -1.2224E+03  0.0000E+00  0.0000E+00  0.0000E+00  0.0000E+00
 950.000f -8.1971E+02  2.7455E+02  2.4396E+02 -3.8046E+03  1.2216E+03  0.0000E+00  0.0000E+00  1.5651E+03  0.0000E+00
   4.096m  5.1063E+03  0.0000E+00  0.0000E+00  0.0000E+00  9.0000E+01  9.0000E+01  9.0000E+01  0.0000E+00  6.1658E-01

  rolling -8.6577E+02  3.0142E+02 -1.1163E+03  9.9099E+01 -1.2154E+03  0.0000E+00  0.0000E+00  0.0000E+00  0.0000E+00
 averages -8.6196E+02  2.9082E+02  3.7062E+02 -3.6625E+03  1.2147E+03  0.0000E+00  0.0000E+00  1.5346E+03  0.0000E+00
           5.1077E+03  0.0000E+00  0.0000E+00  0.0000E+00  9.0000E+01  9.0000E+01  9.0000E+01  0.0000E+00  4.9748E-02
 ------------------------------------------------------------------------------------------------------------------------
     2000 -8.6575E+02  2.9598E+02 -1.1117E+03  1.2549E+02 -1.2372E+03  0.0000E+00  0.0000E+00  0.0000E+00  0.0000E+00
   1.000p -7.8071E+02  3.2143E+02  1.0551E+02 -4.0302E+03  1.2364E+03  0.0000E+00  0.0000E+00  1.5882E+03  0.0000E+00
   4.313m  5.1037E+03  0.0000E+00  0.0000E+00  0.0000E+00  9.0000E+01  9.0000E+01  9.0000E+01  0.0000E+00  1.1400E+00

  rolling -8.6574E+02  2.9631E+02 -1.1120E+03  1.2544E+02 -1.2374E+03  0.0000E+00  0.0000E+00  0.0000E+00  0.0000E+00
 averages -7.7374E+02  2.9051E+02  9.7812E+01 -4.0199E+03  1.2367E+03  0.0000E+00  0.0000E+00  1.5965E+03  0.0000E+00
           5.1049E+03  0.0000E+00  0.0000E+00  0.0000E+00  9.0000E+01  9.0000E+01  9.0000E+01  0.0000E+00  1.2337E+00
 ------------------------------------------------------------------------------------------------------------------------
     2100 -8.6572E+02  2.9351E+02 -1.1096E+03  1.0402E+02 -1.2136E+03  0.0000E+00  0.0000E+00  0.0000E+00  0.0000E+00
   1.050p -8.4788E+02  3.2440E+02  3.0187E+02 -3.7459E+03  1.2127E+03  0.0000E+00  0.0000E+00  1.5322E+03  0.0000E+00
   4.530m  5.1019E+03  0.0000E+00  0.0000E+00  0.0000E+00  9.0000E+01  9.0000E+01  9.0000E+01  0.0000E+00  2.3692E-01

  rolling -8.6574E+02  2.9514E+02 -1.1110E+03  1.1392E+02 -1.2249E+03  0.0000E+00  0.0000E+00  0.0000E+00  0.0000E+00
 averages -8.1541E+02  3.2427E+02  2.0711E+02 -3.8805E+03  1.2241E+03  0.0000E+00  0.0000E+00  1.5495E+03  0.0000E+00
           5.1027E+03  0.0000E+00  0.0000E+00  0.0000E+00  9.0000E+01  9.0000E+01  9.0000E+01  0.0000E+00  6.7367E-01
 ------------------------------------------------------------------------------------------------------------------------
     2200 -8.6574E+02  3.0472E+02 -1.1190E+03  8.1022E+01 -1.2000E+03  0.0000E+00  0.0000E+00  0.0000E+00  0.0000E+00
   1.100p -9.2214E+02  2.8892E+02  5.5780E+02 -3.4398E+03  1.1997E+03  0.0000E+00  0.0000E+00  1.5579E+03  0.0000E+00
   4.746m  5.1002E+03  0.0000E+00  0.0000E+00  0.0000E+00  9.0000E+01  9.0000E+01  9.0000E+01  0.0000E+00 -7.6102E-01

  rolling -8.6575E+02  3.0017E+02 -1.1152E+03  9.0759E+01 -1.2059E+03  0.0000E+00  0.0000E+00  0.0000E+00  0.0000E+00
 averages -8.9337E+02  2.9830E+02  4.6007E+02 -3.5673E+03  1.2053E+03  0.0000E+00  0.0000E+00  1.5799E+03  0.0000E+00
           5.1011E+03  0.0000E+00  0.0000E+00  0.0000E+00  9.0000E+01  9.0000E+01  9.0000E+01  0.0000E+00 -3.7418E-01
 ------------------------------------------------------------------------------------------------------------------------
     2300 -8.6574E+02  3.0213E+02 -1.1168E+03  9.6414E+01 -1.2132E+03  0.0000E+00  0.0000E+00  0.0000E+00  0.0000E+00
   1.150p -8.7048E+02  2.9894E+02  3.9428E+02 -3.6524E+03  1.2122E+03  0.0000E+00  0.0000E+00  1.5392E+03  0.0000E+00
   4.961m  5.0982E+03  0.0000E+00  0.0000E+00  0.0000E+00  9.0000E+01  9.0000E+01  9.0000E+01  0.0000E+00 -6.6000E-02

  rolling -8.6574E+02  3.0244E+02 -1.1171E+03  9.4827E+01 -1.2119E+03  0.0000E+00  0.0000E+00  0.0000E+00  0.0000E+00
 averages -8.7335E+02  2.9802E+02  4.0387E+02 -3.6247E+03  1.2109E+03  0.0000E+00  0.0000E+00  1.5482E+03  0.0000E+00
           5.0992E+03  0.0000E+00  0.0000E+00  0.0000E+00  9.0000E+01  9.0000E+01  9.0000E+01  0.0000E+00 -1.0489E-01
 ------------------------------------------------------------------------------------------------------------------------
 ------------------------------------------------------------------------------------------------------------------------

     step     eng_tot    temp_tot     eng_cfg     eng_vdw     eng_cou     eng_bnd     eng_ang     eng_dih     eng_tet
 time          eng_pv    temp_rot     vir_cfg     vir_vdw     vir_cou     vir_bnd     vir_ang     vir_con     vir_tet
 cpu time      volume    temp_shl     eng_shl     vir_shl       alpha        beta       gamma     vir_pmf       press

 ------------------------------------------------------------------------------------------------------------------------
     2400 -8.6585E+02  2.8504E+02 -1.1028E+03  1.1231E+02 -1.2151E+03  0.0000E+00  0.0000E+00  0.0000E+00  0.0000E+00
   1.200p -8.2471E+02  3.0386E+02  2.2608E+02 -3.8682E+03  1.2145E+03  0.0000E+00  0.0000E+00  1.5676E+03  0.0000E+00
   5.177m  5.0963E+03  0.0000E+00  0.0000E+00  0.0000E+00  9.0000E+01  9.0000E+01  9.0000E+01  0.0000E+00  5.5178E-01

  rolling -8.6582E+02  2.9289E+02 -1.1093E+03  1.0293E+02 -1.2122E+03  0.0000E+00  0.0000E+00  0.0000E+00  0.0000E+00
 averages -8.4248E+02  2.9097E+02  2.9793E+02 -3.7436E+03  1.2115E+03  0.0000E+00  0.0000E+00  1.5519E+03  0.0000E+00
           5.0972E+03  0.0000E+00  0.0000E+00  0.0000E+00  9.0000E+01  9.0000E+01  9.0000E+01  0.0000E+00  3.1190E-01
 ------------------------------------------------------------------------------------------------------------------------
     2500 -8.6581E+02  3.0566E+02 -1.1199E+03  8.7349E+01 -1.2072E+03  0.0000E+00  0.0000E+00  0.0000E+00  0.0000E+00
   1.250p -9.0082E+02  2.7705E+02  4.9984E+02 -3.5224E+03  1.2064E+03  0.0000E+00  0.0000E+00  1.5526E+03  0.0000E+00
   5.392m  5.0947E+03  0.0000E+00  0.0000E+00  0.0000E+00  9.0000E+01  9.0000E+01  9.0000E+01  0.0000E+00 -4.7284E-01

  rolling -8.6583E+02  2.9259E+02 -1.1090E+03  9.9584E+01 -1.2086E+03  0.0000E+00  0.0000E+00  0.0000E+00  0.0000E+00
 averages -8.6292E+02  2.8308E+02  3.6188E+02 -3.6910E+03  1.2080E+03  0.0000E+00  0.0000E+00  1.5681E+03  0.0000E+00
           5.0955E+03  0.0000E+00  0.0000E+00  0.0000E+00  9.0000E+01  9.0000E+01  9.0000E+01  0.0000E+00  3.7377E-02
 ------------------------------------------------------------------------------------------------------------------------
     2600 -8.6589E+02  2.7746E+02 -1.0965E+03  1.1403E+02 -1.2106E+03  0.0000E+00  0.0000E+00  0.0000E+00  0.0000E+00
   1.300p -7.8347E+02  2.5580E+02  1.0927E+02 -3.8840E+03  1.2096E+03  0.0000E+00  0.0000E+00  1.5459E+03  0.0000E+00
   5.606m  5.0929E+03  0.0000E+00  0.0000E+00  0.0000E+00  9.0000E+01  9.0000E+01  9.0000E+01  0.0000E+00  1.1085E+00

  rolling -8.6584E+02  2.9581E+02 -1.1118E+03  1.0011E+02 -1.2119E+03  0.0000E+00  0.0000E+00  0.0000E+00  0.0000E+00
 averages -8.5329E+02  2.7111E+02  3.4314E+02 -3.6946E+03  1.2109E+03  0.0000E+00  0.0000E+00  1.5681E+03  0.0000E+00
           5.0938E+03  0.0000E+00  0.0000E+00  0.0000E+00  9.0000E+01  9.0000E+01  9.0000E+01  0.0000E+00  1.6769E-01
 ------------------------------------------------------------------------------------------------------------------------
     2700 -8.6583E+02  2.9532E+02 -1.1114E+03  9.8401E+01 -1.2098E+03  0.0000E+00  0.0000E+00  0.0000E+00  0.0000E+00
   1.350p -8.5759E+02  3.0264E+02  3.4224E+02 -3.6762E+03  1.2089E+03  0.0000E+00  0.0000E+00  1.5391E+03  0.0000E+00
   5.820m  5.0915E+03  0.0000E+00  0.0000E+00  0.0000E+00  9.0000E+01  9.0000E+01  9.0000E+01  0.0000E+00  1.0984E-01

  rolling -8.6587E+02  2.9185E+02 -1.1085E+03  1.0495E+02 -1.2135E+03  0.0000E+00  0.0000E+00  0.0000E+00  0.0000E+00
 averages -8.3149E+02  2.7450E+02  2.6964E+02 -3.7652E+03  1.2124E+03  0.0000E+00  0.0000E+00  1.5703E+03  0.0000E+00
           5.0922E+03  0.0000E+00  0.0000E+00  0.0000E+00  9.0000E+01  9.0000E+01  9.0000E+01  0.0000E+00  4.6176E-01
 ------------------------------------------------------------------------------------------------------------------------
     2800 -8.6585E+02  2.9818E+02 -1.1138E+03  8.2694E+01 -1.1965E+03  0.0000E+00  0.0000E+00  0.0000E+00  0.0000E+00
   1.400p -9.0950E+02  2.9909E+02  5.0405E+02 -3.4792E+03  1.1956E+03  0.0000E+00  0.0000E+00  1.5286E+03  0.0000E+00
   6.036m  5.0901E+03  0.0000E+00  0.0000E+00  0.0000E+00  9.0000E+01  9.0000E+01  9.0000E+01  0.0000E+00 -5.8881E-01

  rolling -8.6583E+02  2.9866E+02 -1.1141E+03  9.1281E+01 -1.2054E+03  0.0000E+00  0.0000E+00  0.0000E+00  0.0000E+00
 averages -8.8453E+02  3.1151E+02  4.2493E+02 -3.5880E+03  1.2047E+03  0.0000E+00  0.0000E+00  1.5405E+03  0.0000E+00
           5.0908E+03  0.0000E+00  0.0000E+00  0.0000E+00  9.0000E+01  9.0000E+01  9.0000E+01  0.0000E+00 -2.5282E-01
 ------------------------------------------------------------------------------------------------------------------------
     2900 -8.6588E+02  2.9892E+02 -1.1144E+03  8.5240E+01 -1.1997E+03  0.0000E+00  0.0000E+00  0.0000E+00  0.0000E+00
   1.450p -9.1572E+02  2.8282E+02  5.3049E+02 -3.5127E+03  1.1989E+03  0.0000E+00  0.0000E+00  1.5460E+03  0.0000E+00
   6.252m  5.0885E+03  0.0000E+00  0.0000E+00  0.0000E+00  9.0000E+01  9.0000E+01  9.0000E+01  0.0000E+00 -6.7209E-01

  rolling -8.6585E+02  2.8992E+02 -1.1069E+03  8.3789E+01 -1.1907E+03  0.0000E+00  0.0000E+00  0.0000E+00  0.0000E+00
 averages -9.0629E+02  2.6892E+02  4.9308E+02 -3.4932E+03  1.1900E+03  0.0000E+00  0.0000E+00  1.5113E+03  0.0000E+00
           5.0893E+03  0.0000E+00  0.0000E+00  0.0000E+00  9.0000E+01  9.0000E+01  9.0000E+01  0.0000E+00 -5.4556E-01
 ------------------------------------------------------------------------------------------------------------------------
     3000 -8.6578E+02  2.8060E+02 -1.0991E+03  8.6174E+01 -1.1853E+03  0.0000E+00  0.0000E+00  0.0000E+00  0.0000E+00
   1.500p -8.8550E+02  2.7319E+02  4.1363E+02 -3.5347E+03  1.1842E+03  0.0000E+00  0.0000E+00  1.4956E+03  0.0000E+00
   6.469m  5.0865E+03  0.0000E+00  0.0000E+00  0.0000E+00  9.0000E+01  9.0000E+01  9.0000E+01  0.0000E+00 -2.6640E-01

  rolling -8.6583E+02  2.8266E+02 -1.1009E+03  8.7066E+01 -1.1879E+03  0.0000E+00  0.0000E+00  0.0000E+00  0.0000E+00
 averages -8.9307E+02  2.7609E+02  4.3841E+02 -3.5403E+03  1.1871E+03  0.0000E+00  0.0000E+00  1.5118E+03  0.0000E+00
           5.0875E+03  0.0000E+00  0.0000E+00  0.0000E+00  9.0000E+01  9.0000E+01  9.0000E+01  0.0000E+00 -3.6761E-01
 ------------------------------------------------------------------------------------------------------------------------
     3100 -8.6582E+02  3.0865E+02 -1.1224E+03  1.0327E+02 -1.2257E+03  0.0000E+00  0.0000E+00  0.0000E+00  0.0000E+00
   1.550p -8.5403E+02  3.1763E+02  3.4765E+02 -3.7656E+03  1.2245E+03  0.0000E+00  0.0000E+00  1.6490E+03  0.0000E+00
   6.685m  5.0843E+03  0.0000E+00  0.0000E+00  0.0000E+00  9.0000E+01  9.0000E+01  9.0000E+01  0.0000E+00  1.5769E-01

  rolling -8.6581E+02  2.9472E+02 -1.1108E+03  9.1939E+01 -1.2028E+03  0.0000E+00  0.0000E+00  0.0000E+00  0.0000E+00
 averages -8.7680E+02  2.8107E+02  4.0774E+02 -3.6168E+03  1.2018E+03  0.0000E+00  0.0000E+00  1.5744E+03  0.0000E+00
           5.0854E+03  0.0000E+00  0.0000E+00  0.0000E+00  9.0000E+01  9.0000E+01  9.0000E+01  0.0000E+00 -1.4899E-01
 ------------------------------------------------------------------------------------------------------------------------
 ------------------------------------------------------------------------------------------------------------------------

     step     eng_tot    temp_tot     eng_cfg     eng_vdw     eng_cou     eng_bnd     eng_ang     eng_dih     eng_tet
 time          eng_pv    temp_rot     vir_cfg     vir_vdw     vir_cou     vir_bnd     vir_ang     vir_con     vir_tet
 cpu time      volume    temp_shl     eng_shl     vir_shl       alpha        beta       gamma     vir_pmf       press

 ------------------------------------------------------------------------------------------------------------------------
     3200 -8.6586E+02  3.1465E+02 -1.1274E+03  9.0125E+01 -1.2175E+03  0.0000E+00  0.0000E+00  0.0000E+00  0.0000E+00
   1.600p -8.9216E+02  3.0172E+02  4.7867E+02 -3.5695E+03  1.2162E+03  0.0000E+00  0.0000E+00  1.6119E+03  0.0000E+00
   6.901m  5.0822E+03  0.0000E+00  0.0000E+00  0.0000E+00  9.0000E+01  9.0000E+01  9.0000E+01  0.0000E+00 -3.5717E-01

  rolling -8.6582E+02  2.9430E+02 -1.1104E+03  9.8220E+01 -1.2087E+03  0.0000E+00  0.0000E+00  0.0000E+00  0.0000E+00
 averages -8.5549E+02  2.7011E+02  3.4783E+02 -3.6886E+03  1.2075E+03  0.0000E+00  0.0000E+00  1.6196E+03  0.0000E+00
           5.0832E+03  0.0000E+00  0.0000E+00  0.0000E+00  9.0000E+01  9.0000E+01  9.0000E+01  0.0000E+00  1.3740E-01
 ------------------------------------------------------------------------------------------------------------------------
     3300 -8.6578E+02  2.9946E+02 -1.1146E+03  1.1008E+02 -1.2247E+03  0.0000E+00  0.0000E+00  0.0000E+00  0.0000E+00
   1.650p -8.3157E+02  3.0454E+02  2.7086E+02 -3.8270E+03  1.2239E+03  0.0000E+00  0.0000E+00  1.5994E+03  0.0000E+00
   7.117m  5.0802E+03  0.0000E+00  0.0000E+00  0.0000E+00  9.0000E+01  9.0000E+01  9.0000E+01  0.0000E+00  4.5875E-01

  rolling -8.6583E+02  2.9830E+02 -1.1137E+03  1.0416E+02 -1.2179E+03  0.0000E+00  0.0000E+00  0.0000E+00  0.0000E+00
 averages -8.4338E+02  2.7718E+02  3.1537E+02 -3.7476E+03  1.2170E+03  0.0000E+00  0.0000E+00  1.6146E+03  0.0000E+00
           5.0812E+03  0.0000E+00  0.0000E+00  0.0000E+00  9.0000E+01  9.0000E+01  9.0000E+01  0.0000E+00  3.0042E-01
 ------------------------------------------------------------------------------------------------------------------------
     3400 -8.6581E+02  3.0955E+02 -1.1230E+03  1.0089E+02 -1.2239E+03  0.0000E+00  0.0000E+00  0.0000E+00  0.0000E+00
   1.700p -8.6866E+02  2.9607E+02  4.0240E+02 -3.7110E+03  1.2241E+03  0.0000E+00  0.0000E+00  1.6109E+03  0.0000E+00
   7.332m  5.0784E+03  0.0000E+00  0.0000E+00  0.0000E+00  9.0000E+01  9.0000E+01  9.0000E+01  0.0000E+00 -4.1961E-02

  rolling -8.6580E+02  3.0677E+02 -1.1207E+03  1.0532E+02 -1.2260E+03  0.0000E+00  0.0000E+00  0.0000E+00  0.0000E+00
 averages -8.5409E+02  2.9412E+02  3.5487E+02 -3.7674E+03  1.2258E+03  0.0000E+00  0.0000E+00  1.6090E+03  0.0000E+00
           5.0792E+03  0.0000E+00  0.0000E+00  0.0000E+00  9.0000E+01  9.0000E+01  9.0000E+01  0.0000E+00  1.5478E-01
 ------------------------------------------------------------------------------------------------------------------------
     3500 -8.6581E+02  3.0501E+02 -1.1192E+03  1.0893E+02 -1.2281E+03  0.0000E+00  0.0000E+00  0.0000E+00  0.0000E+00
   1.750p -8.2279E+02  2.8998E+02  2.5976E+02 -3.8090E+03  1.2277E+03  0.0000E+00  0.0000E+00  1.5420E+03  0.0000E+00
   7.548m  5.0768E+03  0.0000E+00  0.0000E+00  0.0000E+00  9.0000E+01  9.0000E+01  9.0000E+01  0.0000E+00  5.7753E-01

  rolling -8.6580E+02  3.0035E+02 -1.1153E+03  1.1316E+02 -1.2285E+03  0.0000E+00  0.0000E+00  0.0000E+00  0.0000E+00
 averages -8.2083E+02  2.9149E+02  2.4553E+02 -3.8664E+03  1.2281E+03  0.0000E+00  0.0000E+00  1.5788E+03  0.0000E+00
           5.0775E+03  0.0000E+00  0.0000E+00  0.0000E+00  9.0000E+01  9.0000E+01  9.0000E+01  0.0000E+00  6.0381E-01
 ------------------------------------------------------------------------------------------------------------------------
     3600 -8.6584E+02  3.0597E+02 -1.1201E+03  9.6918E+01 -1.2170E+03  0.0000E+00  0.0000E+00  0.0000E+00  0.0000E+00
   1.800p -8.8300E+02  3.1364E+02  4.3204E+02 -3.6413E+03  1.2158E+03  0.0000E+00  0.0000E+00  1.6279E+03  0.0000E+00
   7.764m  5.0755E+03  0.0000E+00  0.0000E+00  0.0000E+00  9.0000E+01  9.0000E+01  9.0000E+01  0.0000E+00 -2.3479E-01

  rolling -8.6583E+02  3.0227E+02 -1.1170E+03  1.0428E+02 -1.2212E+03  0.0000E+00  0.0000E+00  0.0000E+00  0.0000E+00
 averages -8.4780E+02  2.8208E+02  3.3340E+02 -3.7414E+03  1.2205E+03  0.0000E+00  0.0000E+00  1.6017E+03  0.0000E+00
           5.0761E+03  0.0000E+00  0.0000E+00  0.0000E+00  9.0000E+01  9.0000E+01  9.0000E+01  0.0000E+00  2.4012E-01
 ------------------------------------------------------------------------------------------------------------------------
     3700 -8.6584E+02  2.8452E+02 -1.1023E+03  1.1864E+02 -1.2209E+03  0.0000E+00  0.0000E+00  0.0000E+00  0.0000E+00
   1.850p -8.1365E+02  2.8152E+02  2.0136E+02 -3.9322E+03  1.2200E+03  0.0000E+00  0.0000E+00  1.6397E+03  0.0000E+00
   7.980m  5.0744E+03  0.0000E+00  0.0000E+00  0.0000E+00  9.0000E+01  9.0000E+01  9.0000E+01  0.0000E+00  7.0304E-01

  rolling -8.6586E+02  2.9840E+02 -1.1138E+03  1.1020E+02 -1.2240E+03  0.0000E+00  0.0000E+00  0.0000E+00  0.0000E+00
 averages -8.4396E+02  3.1606E+02  3.0120E+02 -3.8189E+03  1.2233E+03  0.0000E+00  0.0000E+00  1.6279E+03  0.0000E+00
           5.0749E+03  0.0000E+00  0.0000E+00  0.0000E+00  9.0000E+01  9.0000E+01  9.0000E+01  0.0000E+00  2.9331E-01
 ------------------------------------------------------------------------------------------------------------------------
     3800 -8.6583E+02  3.1762E+02 -1.1299E+03  9.0735E+01 -1.2206E+03  0.0000E+00  0.0000E+00  0.0000E+00  0.0000E+00
   1.900p -9.1468E+02  3.5860E+02  5.2764E+02 -3.5710E+03  1.2199E+03  0.0000E+00  0.0000E+00  1.5719E+03  0.0000E+00
   8.195m  5.0734E+03  0.0000E+00  0.0000E+00  0.0000E+00  9.0000E+01  9.0000E+01  9.0000E+01  0.0000E+00 -6.6155E-01

  rolling -8.6584E+02  3.0192E+02 -1.1168E+03  1.0040E+02 -1.2172E+03  0.0000E+00  0.0000E+00  0.0000E+00  0.0000E+00
 averages -8.7314E+02  3.1916E+02  3.9318E+02 -3.6981E+03  1.2163E+03  0.0000E+00  0.0000E+00  1.5894E+03  0.0000E+00
           5.0739E+03  0.0000E+00  0.0000E+00  0.0000E+00  9.0000E+01  9.0000E+01  9.0000E+01  0.0000E+00 -1.0039E-01
 ------------------------------------------------------------------------------------------------------------------------
     3900 -8.6585E+02  3.0487E+02 -1.1194E+03  9.1433E+01 -1.2108E+03  0.0000E+00  0.0000E+00  0.0000E+00  0.0000E+00
   1.950p -9.0272E+02  3.0739E+02  4.9122E+02 -3.5707E+03  1.2105E+03  0.0000E+00  0.0000E+00  1.5343E+03  0.0000E+00
   8.410m  5.0723E+03  0.0000E+00  0.0000E+00  0.0000E+00  9.0000E+01  9.0000E+01  9.0000E+01  0.0000E+00 -4.9826E-01

  rolling -8.6585E+02  2.9644E+02 -1.1123E+03  9.6046E+01 -1.2084E+03  0.0000E+00  0.0000E+00  0.0000E+00  0.0000E+00
 averages -8.7325E+02  2.8647E+02  3.9759E+02 -3.6349E+03  1.2077E+03  0.0000E+00  0.0000E+00  1.5276E+03  0.0000E+00
           5.0729E+03  0.0000E+00  0.0000E+00  0.0000E+00  9.0000E+01  9.0000E+01  9.0000E+01  0.0000E+00 -1.0070E-01
 ------------------------------------------------------------------------------------------------------------------------
 ------------------------------------------------------------------------------------------------------------------------

     step     eng_tot    temp_tot     eng_cfg     eng_vdw     eng_cou     eng_bnd     eng_ang     eng_dih     eng_tet
 time          eng_pv    temp_rot     vir_cfg     vir_vdw     vir_cou     vir_bnd     vir_ang     vir_con     vir_tet
 cpu time      volume    temp_shl     eng_shl     vir_shl       alpha        beta       gamma     vir_pmf       press

 ------------------------------------------------------------------------------------------------------------------------
     4000 -8.6582E+02  2.9169E+02 -1.1085E+03  9.4466E+01 -1.2030E+03  0.0000E+00  0.0000E+00  0.0000E+00  0.0000E+00
   2.000p -8.7461E+02  2.7323E+02  3.9881E+02 -3.6059E+03  1.2013E+03  0.0000E+00  0.0000E+00  1.5586E+03  0.0000E+00
   8.626m  5.0711E+03  0.0000E+00  0.0000E+00  0.0000E+00  9.0000E+01  9.0000E+01  9.0000E+01  0.0000E+00 -1.1736E-01

  rolling -8.6584E+02  2.9542E+02 -1.1116E+03  9.3636E+01 -1.2052E+03  0.0000E+00  0.0000E+00  0.0000E+00  0.0000E+00
 averages -8.8291E+02  3.0015E+02  4.1897E+02 -3.5956E+03  1.2040E+03  0.0000E+00  0.0000E+00  1.5522E+03  0.0000E+00
           5.0717E+03  0.0000E+00  0.0000E+00  0.0000E+00  9.0000E+01  9.0000E+01  9.0000E+01  0.0000E+00 -2.3010E-01
 ------------------------------------------------------------------------------------------------------------------------
     4100 -8.6583E+02  2.9506E+02 -1.1114E+03  8.3214E+01 -1.1946E+03  0.0000E+00  0.0000E+00  0.0000E+00  0.0000E+00
   2.050p -9.1018E+02  3.0734E+02  4.9683E+02 -3.4507E+03  1.1937E+03  0.0000E+00  0.0000E+00  1.5172E+03  0.0000E+00
   8.843m  5.0697E+03  0.0000E+00  0.0000E+00  0.0000E+00  9.0000E+01  9.0000E+01  9.0000E+01  0.0000E+00 -5.9726E-01

  rolling -8.6584E+02  2.8918E+02 -1.1065E+03  8.9654E+01 -1.1961E+03  0.0000E+00  0.0000E+00  0.0000E+00  0.0000E+00
 averages -8.8350E+02  2.9141E+02  4.1365E+02 -3.5414E+03  1.1951E+03  0.0000E+00  0.0000E+00  1.4994E+03  0.0000E+00
           5.0704E+03  0.0000E+00  0.0000E+00  0.0000E+00  9.0000E+01  9.0000E+01  9.0000E+01  0.0000E+00 -2.3682E-01
 ------------------------------------------------------------------------------------------------------------------------
     4200 -8.6583E+02  2.9109E+02 -1.1082E+03  7.7106E+01 -1.1853E+03  0.0000E+00  0.0000E+00  0.0000E+00  0.0000E+00
   2.100p -9.4216E+02  2.9539E+02  5.9086E+02 -3.3586E+03  1.1838E+03  0.0000E+00  0.0000E+00  1.5922E+03  0.0000E+00
   9.059m  5.0680E+03  0.0000E+00  0.0000E+00  0.0000E+00  9.0000E+01  9.0000E+01  9.0000E+01  0.0000E+00 -1.0291E+00

  rolling -8.6583E+02  2.8634E+02 -1.1042E+03  7.1859E+01 -1.1761E+03  0.0000E+00  0.0000E+00  0.0000E+00  0.0000E+00
 averages -9.4155E+02  2.7877E+02  5.8803E+02 -3.2969E+03  1.1751E+03  0.0000E+00  0.0000E+00  1.5373E+03  0.0000E+00
           5.0689E+03  0.0000E+00  0.0000E+00  0.0000E+00  9.0000E+01  9.0000E+01  9.0000E+01  0.0000E+00 -1.0210E+00
 ------------------------------------------------------------------------------------------------------------------------
     4300 -8.6586E+02  3.0144E+02 -1.1169E+03  7.4418E+01 -1.1913E+03  0.0000E+00  0.0000E+00  0.0000E+00  0.0000E+00
   2.150p -9.5227E+02  2.9351E+02  6.3883E+02 -3.3340E+03  1.1904E+03  0.0000E+00  0.0000E+00  1.6056E+03  0.0000E+00
   9.276m  5.0654E+03  0.0000E+00  0.0000E+00  0.0000E+00  9.0000E+01  9.0000E+01  9.0000E+01  0.0000E+00 -1.1650E+00

  rolling -8.6584E+02  3.0129E+02 -1.1167E+03  6.8607E+01 -1.1853E+03  0.0000E+00  0.0000E+00  0.0000E+00  0.0000E+00
 averages -9.6898E+02  2.9851E+02  6.8683E+02 -3.2523E+03  1.1842E+03  0.0000E+00  0.0000E+00  1.5952E+03  0.0000E+00
           5.0667E+03  0.0000E+00  0.0000E+00  0.0000E+00  9.0000E+01  9.0000E+01  9.0000E+01  0.0000E+00 -1.3917E+00
 ------------------------------------------------------------------------------------------------------------------------
     4400 -8.6591E+02  3.0283E+02 -1.1182E+03  1.0400E+02 -1.2222E+03  0.0000E+00  0.0000E+00  0.0000E+00  0.0000E+00
   2.200p -8.6411E+02  3.2888E+02  3.6173E+02 -3.7406E+03  1.2213E+03  0.0000E+00  0.0000E+00  1.6329E+03  0.0000E+00
   9.491m  5.0621E+03  0.0000E+00  0.0000E+00  0.0000E+00  9.0000E+01  9.0000E+01  9.0000E+01  0.0000E+00  3.0202E-02

  rolling -8.6588E+02  3.0018E+02 -1.1159E+03  9.3832E+01 -1.2098E+03  0.0000E+00  0.0000E+00  0.0000E+00  0.0000E+00
 averages -8.8709E+02  2.8916E+02  4.4278E+02 -3.5992E+03  1.2086E+03  0.0000E+00  0.0000E+00  1.6324E+03  0.0000E+00
           5.0638E+03  0.0000E+00  0.0000E+00  0.0000E+00  9.0000E+01  9.0000E+01  9.0000E+01  0.0000E+00 -2.8180E-01
 ------------------------------------------------------------------------------------------------------------------------
     4500 -8.6589E+02  3.0877E+02 -1.1232E+03  8.6393E+01 -1.2096E+03  0.0000E+00  0.0000E+00  0.0000E+00  0.0000E+00
   2.250p -9.1427E+02  3.2558E+02  5.2325E+02 -3.5223E+03  1.2087E+03  0.0000E+00  0.0000E+00  1.5809E+03  0.0000E+00
   9.706m  5.0589E+03  0.0000E+00  0.0000E+00  0.0000E+00  9.0000E+01  9.0000E+01  9.0000E+01  0.0000E+00 -6.4885E-01

  rolling -8.6591E+02  2.9638E+02 -1.1129E+03  9.8278E+01 -1.2111E+03  0.0000E+00  0.0000E+00  0.0000E+00  0.0000E+00
 averages -8.7268E+02  3.1649E+02  3.8169E+02 -3.6725E+03  1.2104E+03  0.0000E+00  0.0000E+00  1.5938E+03  0.0000E+00
           5.0605E+03  0.0000E+00  0.0000E+00  0.0000E+00  9.0000E+01  9.0000E+01  9.0000E+01  0.0000E+00 -8.5479E-02
 ------------------------------------------------------------------------------------------------------------------------
     4600 -8.6588E+02  2.9410E+02 -1.1111E+03  7.6791E+01 -1.1879E+03  0.0000E+00  0.0000E+00  0.0000E+00  0.0000E+00
   2.300p -9.3668E+02  3.2754E+02  5.6498E+02 -3.3880E+03  1.1871E+03  0.0000E+00  0.0000E+00  1.5063E+03  0.0000E+00
   9.922m  5.0553E+03  0.0000E+00  0.0000E+00  0.0000E+00  9.0000E+01  9.0000E+01  9.0000E+01  0.0000E+00 -9.5190E-01

  rolling -8.6590E+02  2.9514E+02 -1.1119E+03  8.4271E+01 -1.1962E+03  0.0000E+00  0.0000E+00  0.0000E+00  0.0000E+00
 averages -9.1601E+02  3.0080E+02  5.1582E+02 -3.4920E+03  1.1954E+03  0.0000E+00  0.0000E+00  1.5578E+03  0.0000E+00
           5.0571E+03  0.0000E+00  0.0000E+00  0.0000E+00  9.0000E+01  9.0000E+01  9.0000E+01  0.0000E+00 -6.7183E-01
 ------------------------------------------------------------------------------------------------------------------------
     4700 -8.6582E+02  2.9134E+02 -1.1089E+03  8.0474E+01 -1.1893E+03  0.0000E+00  0.0000E+00  0.0000E+00  0.0000E+00
   2.350p -9.1664E+02  3.5659E+02  4.8812E+02 -3.4488E+03  1.1885E+03  0.0000E+00  0.0000E+00  1.4938E+03  0.0000E+00
  10.138m  5.0512E+03  0.0000E+00  0.0000E+00  0.0000E+00  9.0000E+01  9.0000E+01  9.0000E+01  0.0000E+00 -6.7974E-01

  rolling -8.6585E+02  2.8560E+02 -1.1041E+03  7.2714E+01 -1.1768E+03  0.0000E+00  0.0000E+00  0.0000E+00  0.0000E+00
 averages -9.4250E+02  2.9852E+02  5.8014E+02 -3.3371E+03  1.1761E+03  0.0000E+00  0.0000E+00  1.5089E+03  0.0000E+00
           5.0533E+03  0.0000E+00  0.0000E+00  0.0000E+00  9.0000E+01  9.0000E+01  9.0000E+01  0.0000E+00 -1.0308E+00
 ------------------------------------------------------------------------------------------------------------------------
 ------------------------------------------------------------------------------------------------------------------------

     step     eng_tot    temp_tot     eng_cfg     eng_vdw     eng_cou     eng_bnd     eng_ang     eng_dih     eng_tet
 time          eng_pv    temp_rot     vir_cfg     vir_vdw     vir_cou     vir_bnd     vir_ang     vir_con     vir_tet
 cpu time      volume    temp_shl     eng_shl     vir_shl       alpha        beta       gamma     vir_pmf       press

 ------------------------------------------------------------------------------------------------------------------------
     4800 -8.6589E+02  2.9687E+02 -1.1136E+03  8.3115E+01 -1.1967E+03  0.0000E+00  0.0000E+00  0.0000E+00  0.0000E+00
   2.400p -9.0116E+02  2.8591E+02  4.7962E+02 -3.5053E+03  1.1955E+03  0.0000E+00  0.0000E+00  1.5433E+03  0.0000E+00
  10.354m  5.0466E+03  0.0000E+00  0.0000E+00  0.0000E+00  9.0000E+01  9.0000E+01  9.0000E+01  0.0000E+00 -4.6846E-01

  rolling -8.6587E+02  2.8730E+02 -1.1056E+03  8.4632E+01 -1.1902E+03  0.0000E+00  0.0000E+00  0.0000E+00  0.0000E+00
 averages -8.9773E+02  3.0480E+02  4.4576E+02 -3.5157E+03  1.1891E+03  0.0000E+00  0.0000E+00  1.5200E+03  0.0000E+00
           5.0489E+03  0.0000E+00  0.0000E+00  0.0000E+00  9.0000E+01  9.0000E+01  9.0000E+01  0.0000E+00 -4.2227E-01
 ------------------------------------------------------------------------------------------------------------------------
     4900 -8.6589E+02  2.9148E+02 -1.1091E+03  9.3033E+01 -1.2021E+03  0.0000E+00  0.0000E+00  0.0000E+00  0.0000E+00
   2.450p -8.5923E+02  2.2937E+02  3.6806E+02 -3.6420E+03  1.2016E+03  0.0000E+00  0.0000E+00  1.5982E+03  0.0000E+00
  10.571m  5.0417E+03  0.0000E+00  0.0000E+00  0.0000E+00  9.0000E+01  9.0000E+01  9.0000E+01  0.0000E+00  1.0160E-01

  rolling -8.6586E+02  2.9315E+02 -1.1105E+03  8.4104E+01 -1.1946E+03  0.0000E+00  0.0000E+00  0.0000E+00  0.0000E+00
 averages -8.8867E+02  2.6406E+02  4.4498E+02 -3.5240E+03  1.1935E+03  0.0000E+00  0.0000E+00  1.5456E+03  0.0000E+00
           5.0441E+03  0.0000E+00  0.0000E+00  0.0000E+00  9.0000E+01  9.0000E+01  9.0000E+01  0.0000E+00 -2.9908E-01
 ------------------------------------------------------------------------------------------------------------------------
     5000 -8.6591E+02  3.1381E+02 -1.1277E+03  8.5430E+01 -1.2131E+03  0.0000E+00  0.0000E+00  0.0000E+00  0.0000E+00
   2.500p -8.9529E+02  2.8984E+02  4.8841E+02 -3.5471E+03  1.2120E+03  0.0000E+00  0.0000E+00  1.6002E+03  0.0000E+00
  10.788m  5.0368E+03  0.0000E+00  0.0000E+00  0.0000E+00  9.0000E+01  9.0000E+01  9.0000E+01  0.0000E+00 -3.8882E-01

  rolling -8.6590E+02  3.0270E+02 -1.1184E+03  9.4982E+01 -1.2134E+03  0.0000E+00  0.0000E+00  0.0000E+00  0.0000E+00
 averages -8.5810E+02  2.7795E+02  3.6332E+02 -3.6722E+03  1.2124E+03  0.0000E+00  0.0000E+00  1.5923E+03  0.0000E+00
           5.0392E+03  0.0000E+00  0.0000E+00  0.0000E+00  9.0000E+01  9.0000E+01  9.0000E+01  0.0000E+00  1.1706E-01
 ------------------------------------------------------------------------------------------------------------------------


 run terminating. elapsed cpu time =   6.47304E+02, job time =  11.574d, close time =   20.00s



 run terminated after    5000 steps. final averages calculated over    4000 steps.


 ------------------------------------------------------------------------------------------------------------------------

     step     eng_tot    temp_tot     eng_cfg     eng_vdw     eng_cou     eng_bnd     eng_ang     eng_dih     eng_tet
 time          eng_pv    temp_rot     vir_cfg     vir_vdw     vir_cou     vir_bnd     vir_ang     vir_con     vir_tet
 cpu time      volume    temp_shl     eng_shl     vir_shl       alpha        beta       gamma     vir_pmf       press

 ------------------------------------------------------------------------------------------------------------------------
     5000 -8.6582E+02  2.9548E+02 -1.1116E+03  9.3754E+01 -1.2054E+03  0.0000E+00  0.0000E+00  0.0000E+00  0.0000E+00
   2.500p -8.7915E+02  2.9079E+02  4.1165E+02 -3.6110E+03  1.2045E+03  0.0000E+00  0.0000E+00  1.5676E+03  0.0000E+00
  10.789m  5.0865E+03  0.0000E+00  0.0000E+00  0.0000E+00  9.0000E+01  9.0000E+01  9.0000E+01  0.0000E+00 -1.7891E-01

  r.m.s.   4.7504E-02  9.3466E+00  7.7290E+00  1.3643E+01  1.6088E+01  0.0000E+00  0.0000E+00  0.0000E+00  0.0000E+00
 fluctn.   4.4807E+01  2.6282E+01  1.3458E+02  1.8282E+02  1.6165E+01  0.0000E+00  0.0000E+00  4.2993E+01  0.0000E+00
           2.2758E+01  0.0000E+00  0.0000E+00  0.0000E+00  1.5842E-13  1.5842E-13  1.5842E-13  0.0000E+00  6.0189E-01
 ------------------------------------------------------------------------------------------------------------------------


            Approximate 3D Diffusion  coefficients (10^-9 m^2 / s)

            atom        D 
            Na+        1.2940E+00
            Cl-        8.8323E+00
            OW         1.0400E+01
            HW         1.1495E+01


                Average pressure tensor                                       r.m.s. fluctuations 

          -3.1396E-02 -3.1569E-02 -6.3609E-03                          8.4605E-01  5.6935E-01  6.9149E-01
          -3.1569E-02 -2.5135E-01  5.8229E-02                          5.6935E-01  7.6890E-01  5.0618E-01
          -6.3609E-03  5.8229E-02 -2.5400E-01                          6.9149E-01  5.0618E-01  1.2245E+00

            trace/3.  -1.7892E-01


                 Average cell vectors                                         r.m.s. fluctuations 

       17.1977593738        0.0000000000        0.0000000000           2.5653E-02  0.0000E+00  0.0000E+00
        0.0000000000       17.1977593738        0.0000000000           0.0000E+00  2.5653E-02  0.0000E+00
        0.0000000000        0.0000000000       17.1977593738           0.0000E+00  0.0000E+00  2.5653E-02


 sample of final configuration

      i       x(i)        y(i)        z(i)       vx(i)       vy(i)       vz(i)       fx(i)       fy(i)       fz(i)


      1 -5.4818E+00  7.9706E+00  4.2355E+00 -5.9609E+00 -2.4687E-01 -2.3095E+00  3.4581E+03 -2.2355E+03 -2.5938E+03
     22 -1.1835E+00  6.9932E+00  1.1577E+00  1.8637E+01 -5.7817E+00  8.4946E+00  2.0862E+03  2.5743E+03 -1.4263E+03
     43  7.7056E+00 -5.6726E+00  7.8051E+00  1.0109E+01 -1.1933E+01 -4.7437E+00  2.7381E+03 -1.2015E+02  7.6473E+02
     64  1.8701E+00 -7.2183E-01 -6.2978E+00  1.3617E+01  8.3741E+00 -3.3855E+01  1.7066E+03 -4.1139E+03 -3.0257E+02
     85 -5.7607E+00  6.7055E+00 -7.5919E+00 -1.5122E+01 -6.3291E+00 -9.2325E+00 -1.5533E+03 -2.5488E+02 -1.1728E+03
    106 -5.5931E+00 -7.5177E+00 -1.5391E+00  2.9787E+00  5.9159E+00  6.5658E+00 -9.9936E+02 -4.1485E+03  2.6912E+03
    127 -5.7448E+00  2.5718E+00  4.9706E+00  8.7408E+00 -2.6269E+00  1.5468E+01 -4.0169E+03  3.7518E+03  2.7317E+03
    148  7.5228E+00 -6.4550E+00  1.0170E+00  8.8575E+00  2.7010E+01  3.9974E+00  2.0094E+03  2.7127E+02  1.5690E+03
    169 -3.9572E+00 -7.2307E+00  5.7771E+00 -1.9108E+00  8.3026E+00  6.8927E+00  2.3663E+03  2.2978E+03  9.9510E+03
    190  5.6566E+00 -2.2248E+00  7.0884E+00  5.7906E+00 -1.4216E+01 -3.4779E+00  1.1274E+03 -1.3355E+03 -4.8003E+03
    211  4.7350E-01  7.0897E+00 -2.3348E+00  1.4054E+01  7.3965E+00 -3.6596E+00 -5.0653E+02  1.9457E+03 -2.3291E+03
    232  2.8360E-01 -1.1596E+00  5.3002E+00 -1.0421E+01 -4.5710E+00  1.3429E+00  1.4206E+03  5.0587E+03  6.9463E+02
    253  6.4746E+00 -8.5628E+00 -4.4101E+00 -8.6384E+00 -1.0650E+00 -3.5883E+00  2.6441E+02  2.3960E+03  4.7021E+03
    274 -2.9335E+00  3.7758E+00 -6.4124E+00 -3.8860E+00  8.5015E+00  5.5042E+00 -2.7297E+02  2.5113E+03 -1.9789E+03
    295  6.1668E+00  2.9873E+00  1.1571E+00  1.5560E+01 -6.0319E-01  4.7705E+00  1.4095E+02 -1.7590E+03 -3.2802E+03
    316  2.8802E+00  6.1911E+00  1.6633E+00  6.1027E+00 -7.2044E+00 -1.1171E-01 -3.0003E+03 -4.0346E+03 -3.7554E+03
    337 -2.9889E+00 -8.0254E+00  7.6184E+00  2.8584E+00  6.6589E+00  1.0173E+01  2.6017E+02 -1.4853E+03  3.5533E+03
    358  1.1852E+00  7.9756E+00 -5.9265E+00  1.0341E+01 -8.5536E+00 -3.6840E+00 -3.0717E+03  8.5626E+02 -2.8008E+03
    379 -8.2043E+00  7.2484E+00  1.9608E+00 -2.3695E+01 -4.5953E+00  8.5118E+00 -5.1238E+02 -1.4284E+03  2.3521E+03
    400  6.3776E-01  3.3538E+00  1.0672E+00  2.3709E+01  3.3628E+00 -2.9909E+01  2.5172E+03  2.2303E+03 -9.6862E+02


            RADIAL DISTRIBUTION FUNCTIONS

calculated using        400 configurations

g(r)  :Na+     Na+     

        r      g(r)         n(r)


g(r)  :Na+     Cl-     

        r      g(r)         n(r)

    5.8250  0.000000E+00  0.000000E+00
    5.8750  0.000000E+00  0.000000E+00
    5.9250  2.882500E+00  1.250000E-02
    5.9750  7.936487E+00  4.750000E-02
    6.0250  6.132743E+00  7.500000E-02
    6.0750  6.580591E+00  1.050000E-01
    6.1250  1.618398E+00  1.125000E-01
    6.1750  2.123060E+00  1.225000E-01
    6.2250  1.566819E+00  1.300000E-01
    6.2750  2.055933E+00  1.400000E-01
    6.3250  2.023556E+00  1.500000E-01
    6.3750  1.493954E+00  1.575000E-01
    6.4250  1.961057E+00  1.675000E-01
    6.4750  1.930887E+00  1.775000E-01
    6.5250  2.376761E+00  1.900000E-01
    6.5750  1.404450E+00  1.975000E-01
    6.6250  3.227772E+00  2.150000E-01
    6.6750  9.084564E-01  2.200000E-01
    6.7250  4.474990E-01  2.225000E-01
    6.7750  8.818365E-01  2.275000E-01
    6.8250  1.303445E+00  2.350000E-01
    6.8750  1.284555E+00  2.425000E-01
    6.9250  1.266072E+00  2.500000E-01
    6.9750  1.247986E+00  2.575000E-01
    7.0250  1.640379E+00  2.675000E-01
    7.0750  1.212956E+00  2.750000E-01
    7.1250  1.594656E+00  2.850000E-01
    7.1750  3.538145E+00  3.075000E-01
    7.2250  2.713934E+00  3.250000E-01
    7.2750  2.294363E+00  3.400000E-01
    7.3250  2.263148E+00  3.550000E-01
    7.3750  2.976754E+00  3.750000E-01
    7.4250  2.202598E+00  3.900000E-01
    7.4750  7.244103E-01  3.950000E-01
    7.5250  3.574078E-01  3.975000E-01
    7.5750  7.054103E-01  4.025000E-01
    7.6250  3.480947E-01  4.050000E-01
    7.6750  6.871481E-01  4.100000E-01
    7.7250  6.782818E-01  4.150000E-01
    7.7750  1.004379E+00  4.225000E-01
    7.8250  6.610563E-01  4.275000E-01
    7.8750  6.526886E-01  4.325000E-01
    7.9250  3.222394E-01  4.350000E-01
    7.9750  3.182115E-01  4.375000E-01

g(r)  :Na+     OW      

        r      g(r)         n(r)

    2.0750  0.000000E+00  0.000000E+00
    2.1250  0.000000E+00  0.000000E+00
    2.1750  2.154390E-01  1.750000E-02
    2.2250  1.088146E+00  1.100000E-01
    2.2750  3.600755E+00  4.300000E-01
    2.3250  7.056713E+00  1.085000E+00
    2.3750  8.750246E+00  1.932500E+00
    2.4250  8.888315E+00  2.830000E+00
    2.4750  9.174575E+00  3.795000E+00
    2.5250  6.028799E+00  4.455000E+00
    2.5750  3.096099E+00  4.807500E+00
    2.6250  2.366520E+00  5.087500E+00
    2.6750  1.505689E+00  5.272500E+00
    2.7250  1.058796E+00  5.407500E+00
    2.7750  5.861217E-01  5.485000E+00
    2.8250  3.283886E-01  5.530000E+00
    2.8750  3.699104E-01  5.582500E+00
    2.9250  7.317622E-01  5.690000E+00
    2.9750  2.303073E-01  5.725000E+00
    3.0250  3.182242E-02  5.730000E+00
    3.0750  3.079598E-02  5.735000E+00
    3.1250  1.490921E-02  5.737500E+00
    3.1750  2.888666E-02  5.742500E+00
    3.2250  4.199687E-02  5.750000E+00
    3.2750  9.502346E-02  5.767500E+00
    3.3250  1.316959E-01  5.792500E+00
    3.3750  1.533874E-01  5.822500E+00
    3.4250  1.365299E-01  5.850000E+00
    3.4750  2.532014E-01  5.902500E+00
    3.5250  2.929398E-01  5.965000E+00
    3.5750  2.164503E-01  6.012500E+00
    3.6250  4.542812E-01  6.115000E+00
    3.6750  6.144935E-01  6.257500E+00
    3.7250  4.931768E-01  6.375000E+00
    3.7750  6.334543E-01  6.530000E+00
    3.8250  8.757446E-01  6.750000E+00
    3.8750  9.114697E-01  6.985000E+00
    3.9250  7.371795E-01  7.180000E+00
    3.9750  8.016838E-01  7.397500E+00
    4.0250  8.268264E-01  7.627500E+00
    4.0750  9.820219E-01  7.907500E+00
    4.1250  6.588724E-01  8.100000E+00
    4.1750  6.264796E-01  8.287500E+00
    4.2250  6.688353E-01  8.492500E+00
    4.2750  5.576795E-01  8.667500E+00
    4.3250  1.066369E+00  9.010000E+00
    4.3750  8.519636E-01  9.290000E+00
    4.4250  8.253832E-01  9.567500E+00
    4.4750  9.306432E-01  9.887500E+00
    4.5250  9.955207E-01  1.023750E+01
    4.5750  1.071268E+00  1.062250E+01
    4.6250  1.123104E+00  1.103500E+01
    4.6750  1.125857E+00  1.145750E+01
    4.7250  9.456364E-01  1.182000E+01
    4.7750  1.130281E+00  1.226250E+01
    4.8250  1.282092E+00  1.277500E+01
    4.8750  1.200789E+00  1.326500E+01
    4.9250  9.724396E-01  1.367000E+01
    4.9750  1.100058E+00  1.413750E+01
    5.0250  1.424246E+00  1.475500E+01
    5.0750  1.096705E+00  1.524000E+01
    5.1250  1.108671E+00  1.574000E+01
    5.1750  1.201523E+00  1.629250E+01
    5.2250  1.429298E+00  1.696250E+01
    5.2750  1.187795E+00  1.753000E+01
    5.3250  1.088572E+00  1.806000E+01
    5.3750  9.676204E-01  1.854000E+01
    5.4250  1.098283E+00  1.909500E+01
    5.4750  8.694520E-01  1.954250E+01
    5.5250  9.968794E-01  2.006500E+01
    5.5750  1.086824E+00  2.064500E+01
    5.6250  1.035377E+00  2.120750E+01
    5.6750  9.041892E-01  2.170750E+01
    5.7250  9.417724E-01  2.223750E+01
    5.7750  1.130725E+00  2.288500E+01
    5.8250  1.068486E+00  2.350750E+01
    5.8750  1.054594E+00  2.413250E+01
    5.9250  1.144705E+00  2.482250E+01
    5.9750  1.048138E+00  2.546500E+01
    6.0250  1.074935E+00  2.613500E+01
    6.0750  1.219066E+00  2.690750E+01
    6.1250  1.179839E+00  2.766750E+01
    6.1750  1.176084E+00  2.843750E+01
    6.2250  1.469128E+00  2.941500E+01
    6.2750  1.512368E+00  3.043750E+01
    6.3250  1.241066E+00  3.129000E+01
    6.3750  1.081952E+00  3.204500E+01
    6.4250  1.142774E+00  3.285500E+01
    6.4750  1.093938E+00  3.364250E+01
    6.5250  1.166152E+00  3.449500E+01
    6.5750  1.037340E+00  3.526500E+01
    6.6250  9.653460E-01  3.599250E+01
    6.6750  1.062044E+00  3.680500E+01
    6.7250  8.885592E-01  3.749500E+01
    6.7750  1.046784E+00  3.832000E+01
    6.8250  1.015874E+00  3.913250E+01
    6.8750  9.826689E-01  3.993000E+01
    6.9250  9.837107E-01  4.074000E+01
    6.9750  8.319905E-01  4.143500E+01
    7.0250  7.729842E-01  4.209000E+01
    7.0750  9.598936E-01  4.291500E+01
    7.1250  8.833708E-01  4.368500E+01
    7.1750  8.032239E-01  4.439500E+01
    7.2250  1.040388E+00  4.532750E+01
    7.2750  9.298499E-01  4.617250E+01
    7.3250  8.819222E-01  4.698500E+01
    7.3750  9.208663E-01  4.784500E+01
    7.4250  9.243519E-01  4.872000E+01
    7.4750  8.104015E-01  4.949750E+01
    7.5250  9.642297E-01  5.043500E+01
    7.5750  9.236307E-01  5.134500E+01
    7.6250  1.046788E+00  5.239000E+01
    7.6750  1.023307E+00  5.342500E+01
    7.7250  9.979038E-01  5.444750E+01
    7.7750  8.261438E-01  5.530500E+01
    7.8250  7.276375E-01  5.607000E+01
    7.8750  8.639907E-01  5.699000E+01
    7.9250  8.299404E-01  5.788500E+01
    7.9750  9.889738E-01  5.896500E+01

g(r)  :Na+     HW      

        r      g(r)         n(r)

    2.1750  0.000000E+00  0.000000E+00
    2.2250  0.000000E+00  0.000000E+00
    2.2750  1.406545E-02  2.500000E-03
    2.3250  1.346701E-02  5.000000E-03
    2.3750  6.452984E-02  1.750000E-02
    2.4250  1.485512E-01  4.750000E-02
    2.4750  2.139150E-01  9.250000E-02
    2.5250  2.968727E-01  1.575000E-01
    2.5750  4.172048E-01  2.525000E-01
    2.6250  5.176762E-01  3.750000E-01
    2.6750  8.545804E-01  5.850000E-01
    2.7250  1.254870E+00  9.050000E-01
    2.7750  1.644922E+00  1.340000E+00
    2.8250  2.025063E+00  1.895000E+00
    2.8750  2.360380E+00  2.565000E+00
    2.9250  2.714327E+00  3.362500E+00
    2.9750  2.714336E+00  4.187500E+00
    3.0250  3.214064E+00  5.197500E+00
    3.0750  3.141190E+00  6.217500E+00
    3.1250  3.041478E+00  7.237500E+00
    3.1750  2.895888E+00  8.240000E+00
    3.2250  2.645803E+00  9.185000E+00
    3.2750  2.253413E+00  1.001500E+01
    3.3250  2.126889E+00  1.082250E+01
    3.3750  1.540265E+00  1.142500E+01
    3.4250  9.681209E-01  1.181500E+01
    3.4750  8.138615E-01  1.215250E+01
    3.5250  5.214328E-01  1.237500E+01
    3.5750  4.442928E-01  1.257000E+01
    3.6250  5.207614E-01  1.280500E+01
    3.6750  5.498100E-01  1.306000E+01
    3.7250  5.613821E-01  1.332750E+01
    3.7750  5.568267E-01  1.360000E+01
    3.8250  4.030415E-01  1.380250E+01
    3.8750  4.217972E-01  1.402000E+01
    3.9250  3.449622E-01  1.420250E+01
    3.9750  4.284862E-01  1.443500E+01
    4.0250  3.954387E-01  1.465500E+01
    4.0750  3.814103E-01  1.487250E+01
    4.1250  4.877367E-01  1.515750E+01
    4.1750  5.011837E-01  1.545750E+01
    4.2250  5.097830E-01  1.577000E+01
    4.2750  5.935303E-01  1.614250E+01
    4.3250  7.005341E-01  1.659250E+01
    4.3750  7.378613E-01  1.707750E+01
    4.4250  6.915373E-01  1.754250E+01
    4.4750  7.197944E-01  1.803750E+01
    4.5250  7.039753E-01  1.853250E+01
    4.5750  7.999727E-01  1.910750E+01
    4.6250  7.759630E-01  1.967750E+01
    4.6750  8.627128E-01  2.032500E+01
    4.7250  9.521580E-01  2.105500E+01
    4.7750  9.897940E-01  2.183000E+01
    4.8250  9.162267E-01  2.256250E+01
    4.8750  8.730229E-01  2.327500E+01
    4.9250  8.854003E-01  2.401250E+01
    4.9750  8.765169E-01  2.475750E+01
    5.0250  1.037912E+00  2.565750E+01
    5.0750  1.028868E+00  2.656750E+01
    5.1250  1.089269E+00  2.755000E+01
    5.1750  1.090069E+00  2.855250E+01
    5.2250  1.189304E+00  2.966750E+01
    5.2750  1.263667E+00  3.087500E+01
    5.3250  1.134785E+00  3.198000E+01
    5.3750  1.217085E+00  3.318750E+01
    5.4250  1.217016E+00  3.441750E+01
    5.4750  1.182746E+00  3.563500E+01
    5.5250  1.094659E+00  3.678250E+01
    5.5750  1.098535E+00  3.795500E+01
    5.6250  1.288469E+00  3.935500E+01
    5.6750  1.254562E+00  4.074250E+01
    5.7250  1.359351E+00  4.227250E+01
    5.7750  1.290074E+00  4.375000E+01
    5.8250  1.257294E+00  4.521500E+01
    5.8750  1.168491E+00  4.660000E+01
    5.9250  1.335489E+00  4.821000E+01
    5.9750  1.252056E+00  4.974500E+01
    6.0250  1.167186E+00  5.120000E+01
    6.0750  1.215121E+00  5.274000E+01
    6.1250  1.177899E+00  5.425750E+01
    6.1750  1.061530E+00  5.564750E+01
    6.2250  1.044546E+00  5.703750E+01
    6.2750  9.447676E-01  5.831500E+01
    6.3250  9.954005E-01  5.968250E+01
    6.3750  1.049709E+00  6.114750E+01
    6.4250  1.021090E+00  6.259500E+01
    6.4750  1.029691E+00  6.407750E+01
    6.5250  1.017390E+00  6.556500E+01
    6.5750  1.028920E+00  6.709250E+01
    6.6250  9.786154E-01  6.856750E+01
    6.6750  9.525720E-01  7.002500E+01
    6.7250  9.787028E-01  7.154500E+01
    6.7750  9.341757E-01  7.301750E+01
    6.8250  9.392930E-01  7.452000E+01
    6.8750  1.028876E+00  7.619000E+01
    6.9250  9.806746E-01  7.780500E+01
    6.9750  1.002578E+00  7.948000E+01
    7.0250  9.824571E-01  8.114500E+01
    7.0750  1.045702E+00  8.294250E+01
    7.1250  1.041116E+00  8.475750E+01
    7.1750  9.517072E-01  8.644000E+01
    7.2250  9.037148E-01  8.806000E+01
    7.2750  9.422295E-01  8.977250E+01
    7.3250  9.687576E-01  9.155750E+01
    7.3750  1.014559E+00  9.345250E+01
    7.4250  9.771720E-01  9.530250E+01
    7.4750  9.641432E-01  9.715250E+01
    7.5250  9.475164E-01  9.899500E+01
    7.5750  1.012441E+00  1.009900E+02
    7.6250  1.103135E+00  1.031925E+02
    7.6750  1.085101E+00  1.053875E+02
    7.7250  1.071100E+00  1.075825E+02
    7.7750  9.441644E-01  1.095425E+02
    7.8250  9.499712E-01  1.115400E+02
    7.8750  1.001337E+00  1.136725E+02
    7.9250  1.072199E+00  1.159850E+02
    7.9750  1.025602E+00  1.182250E+02

g(r)  :Cl-     Cl-     

        r      g(r)         n(r)


g(r)  :Cl-     OW      

        r      g(r)         n(r)

    2.8750  0.000000E+00  0.000000E+00
    2.9250  0.000000E+00  0.000000E+00
    2.9750  3.290104E-02  5.000000E-03
    3.0250  3.182242E-01  5.500000E-02
    3.0750  8.160935E-01  1.875000E-01
    3.1250  1.192737E+00  3.875000E-01
    3.1750  2.354263E+00  7.950000E-01
    3.2250  3.779719E+00  1.470000E+00
    3.2750  4.221757E+00  2.247500E+00
    3.3250  3.687486E+00  2.947500E+00
    3.3750  4.128677E+00  3.755000E+00
    3.4250  3.326364E+00  4.425000E+00
    3.4750  2.556128E+00  4.955000E+00
    3.5250  2.448976E+00  5.477500E+00
    3.5750  2.255640E+00  5.972500E+00
    3.6250  1.850365E+00  6.390000E+00
    3.6750  1.326012E+00  6.697500E+00
    3.7250  8.079705E-01  6.890000E+00
    3.7750  5.721522E-01  7.030000E+00
    3.8250  7.264699E-01  7.212500E+00
    3.8750  5.139138E-01  7.345000E+00
    3.9250  6.804734E-01  7.525000E+00
    3.9750  4.883821E-01  7.657500E+00
    4.0250  4.493622E-01  7.782500E+00
    4.0750  5.874596E-01  7.950000E+00
    4.1250  7.529971E-01  8.170000E+00
    4.1750  9.188368E-01  8.445000E+00
    4.2250  7.096180E-01  8.662500E+00
    4.2750  5.895469E-01  8.847500E+00
    4.3250  8.873432E-01  9.132500E+00
    4.3750  7.302545E-01  9.372500E+00
    4.4250  7.733321E-01  9.632500E+00
    4.4750  9.379139E-01  9.955000E+00
    4.5250  1.052408E+00  1.032500E+01
    4.5750  1.168656E+00  1.074500E+01
    4.6250  1.021004E+00  1.112000E+01
    4.6750  8.593819E-01  1.144250E+01
    4.7250  8.804201E-01  1.178000E+01
    4.7750  9.387079E-01  1.214750E+01
    4.8250  1.207043E+00  1.263000E+01
    4.8750  9.312245E-01  1.301000E+01
    4.9250  8.223718E-01  1.335250E+01
    4.9750  8.823995E-01  1.372750E+01
    5.0250  9.168225E-01  1.412500E+01
    5.0750  9.779898E-01  1.455750E+01
    5.1250  1.180735E+00  1.509000E+01
    5.1750  1.098224E+00  1.559500E+01
    5.2250  8.426457E-01  1.599000E+01
    5.2750  8.790730E-01  1.641000E+01
    5.3250  8.677770E-01  1.683250E+01
    5.3750  1.043216E+00  1.735000E+01
    5.4250  9.350247E-01  1.782250E+01
    5.4750  7.140192E-01  1.819000E+01
    5.5250  7.488520E-01  1.858250E+01
    5.5750  8.057487E-01  1.901250E+01
    5.6250  7.546747E-01  1.942250E+01
    5.6750  8.092493E-01  1.987000E+01
    5.7250  8.618106E-01  2.035500E+01
    5.7750  9.168039E-01  2.088000E+01
    5.8250  9.654990E-01  2.144250E+01
    5.8750  7.213426E-01  2.187000E+01
    5.9250  9.290361E-01  2.243000E+01
    5.9750  9.217092E-01  2.299500E+01
    6.0250  8.703762E-01  2.353750E+01
    6.0750  1.100710E+00  2.423500E+01
    6.1250  9.625004E-01  2.485500E+01
    6.1750  8.515152E-01  2.541250E+01
    6.2250  7.665014E-01  2.592250E+01
    6.2750  8.615689E-01  2.650500E+01
    6.3250  9.426279E-01  2.715250E+01
    6.3750  9.386475E-01  2.780750E+01
    6.4250  8.711889E-01  2.842500E+01
    6.4750  9.897534E-01  2.913750E+01
    6.5250  1.002001E+00  2.987000E+01
    6.5750  8.588363E-01  3.050750E+01
    6.6250  1.051597E+00  3.130000E+01
    6.6750  1.179686E+00  3.220250E+01
    6.7250  1.072066E+00  3.303500E+01
    6.7750  1.091193E+00  3.389500E+01
    6.8250  1.084641E+00  3.476250E+01
    6.8750  1.102807E+00  3.565750E+01
    6.9250  9.776384E-01  3.646250E+01
    6.9750  1.011557E+00  3.730750E+01
    7.0250  1.124073E+00  3.826000E+01
    7.0750  1.352577E+00  3.942250E+01
    7.1250  1.302112E+00  4.055750E+01
    7.1750  1.094534E+00  4.152500E+01
    7.2250  1.168693E+00  4.257250E+01
    7.2750  1.100414E+00  4.357250E+01
    7.3250  9.090582E-01  4.441000E+01
    7.3750  1.052036E+00  4.539250E+01
    7.4250  1.090735E+00  4.642500E+01
    7.4750  1.183030E+00  4.756000E+01
    7.5250  9.385169E-01  4.847250E+01
    7.5750  8.424324E-01  4.930250E+01
    7.6250  8.439418E-01  5.014500E+01
    7.6750  7.390549E-01  5.089250E+01
    7.7250  7.953952E-01  5.170750E+01
    7.7750  8.839498E-01  5.262500E+01
    7.8250  8.322652E-01  5.350000E+01
    7.8750  9.461638E-01  5.450750E+01
    7.9250  9.342625E-01  5.551500E+01
    7.9750  8.516163E-01  5.644500E+01

g(r)  :Cl-     HW      

        r      g(r)         n(r)

    1.8750  0.000000E+00  0.000000E+00
    1.9250  0.000000E+00  0.000000E+00
    1.9750  1.119767E-01  1.500000E-02
    2.0250  3.017940E-01  5.750000E-02
    2.0750  7.270179E-01  1.650000E-01
    2.1250  1.128480E+00  3.400000E-01
    2.1750  2.108224E+00  6.825000E-01
    2.2250  3.161506E+00  1.220000E+00
    2.2750  3.769540E+00  1.890000E+00
    2.3250  3.474489E+00  2.535000E+00
    2.3750  3.342646E+00  3.182500E+00
    2.4250  2.797715E+00  3.747500E+00
    2.4750  2.650169E+00  4.305000E+00
    2.5250  2.329309E+00  4.815000E+00
    2.5750  2.228752E+00  5.322500E+00
    2.6250  1.553029E+00  5.690000E+00
    2.6750  1.251350E+00  5.997500E+00
    2.7250  1.078404E+00  6.272500E+00
    2.7750  7.657397E-01  6.475000E+00
    2.8250  6.385334E-01  6.650000E+00
    2.8750  4.932138E-01  6.790000E+00
    2.9250  5.445672E-01  6.950000E+00
    2.9750  5.593177E-01  7.120000E+00
    3.0250  3.341354E-01  7.225000E+00
    3.0750  2.771638E-01  7.315000E+00
    3.1250  3.652756E-01  7.437500E+00
    3.1750  3.899700E-01  7.572500E+00
    3.2250  3.849713E-01  7.710000E+00
    3.2750  7.262507E-01  7.977500E+00
    3.3250  6.848188E-01  8.237500E+00
    3.3750  7.669368E-01  8.537500E+00
    3.4250  8.750323E-01  8.890000E+00
    3.4750  1.067063E+00  9.332500E+00
    3.5250  1.341664E+00  9.905000E+00
    3.5750  1.475280E+00  1.055250E+01
    3.6250  1.551204E+00  1.125250E+01
    3.6750  1.606308E+00  1.199750E+01
    3.7250  1.894009E+00  1.290000E+01
    3.7750  1.741999E+00  1.375250E+01
    3.8250  1.492746E+00  1.450250E+01
    3.8750  1.590224E+00  1.532250E+01
    3.9250  1.597222E+00  1.616750E+01
    3.9750  1.432895E+00  1.694500E+01
    4.0250  1.177329E+00  1.760000E+01
    4.0750  1.135463E+00  1.824750E+01
    4.1250  9.925871E-01  1.882750E+01
    4.1750  1.219547E+00  1.955750E+01
    4.2250  9.991747E-01  2.017000E+01
    4.2750  9.839060E-01  2.078750E+01
    4.3250  9.184781E-01  2.137750E+01
    4.3750  7.606818E-01  2.187750E+01
    4.4250  1.014998E+00  2.256000E+01
    4.4750  9.088313E-01  2.318500E+01
    4.5250  9.279675E-01  2.383750E+01
    4.5750  7.721476E-01  2.439250E+01
    4.6250  8.099964E-01  2.498750E+01
    4.6750  7.494609E-01  2.555000E+01
    4.7250  7.728132E-01  2.614250E+01
    4.7750  9.163577E-01  2.686000E+01
    4.8250  9.318620E-01  2.760500E+01
    4.8750  1.029248E+00  2.844500E+01
    4.9250  9.244179E-01  2.921500E+01
    4.9750  9.441675E-01  3.001750E+01
    5.0250  8.216805E-01  3.073000E+01
    5.0750  9.044993E-01  3.153000E+01
    5.1250  9.035668E-01  3.234500E+01
    5.1750  8.399786E-01  3.311750E+01
    5.2250  1.066640E+00  3.411750E+01
    5.2750  9.889571E-01  3.506250E+01
    5.3250  9.165574E-01  3.595500E+01
    5.3750  9.852593E-01  3.693250E+01
    5.4250  9.226567E-01  3.786500E+01
    5.4750  8.184506E-01  3.870750E+01
    5.5250  1.030268E+00  3.978750E+01
    5.5750  9.158365E-01  4.076500E+01
    5.6250  8.375048E-01  4.167500E+01
    5.6750  8.182912E-01  4.258000E+01
    5.7250  8.240509E-01  4.350750E+01
    5.7750  7.421746E-01  4.435750E+01
    5.8250  7.938547E-01  4.528250E+01
    5.8750  8.204745E-01  4.625500E+01
    5.9250  8.606026E-01  4.729250E+01
    5.9750  9.604536E-01  4.847000E+01
    6.0250  1.070924E+00  4.980500E+01
    6.0750  9.685462E-01  5.103250E+01
    6.1250  1.090575E+00  5.243750E+01
    6.1750  1.021436E+00  5.377500E+01
    6.2250  1.078362E+00  5.521000E+01
    6.2750  1.039059E+00  5.661500E+01
    6.3250  9.863018E-01  5.797000E+01
    6.3750  1.094492E+00  5.949750E+01
    6.4250  9.946367E-01  6.090750E+01
    6.4750  1.047055E+00  6.241500E+01
    6.5250  9.917420E-01  6.386500E+01
    6.5750  1.035656E+00  6.540250E+01
    6.6250  9.089512E-01  6.677250E+01
    6.6750  8.872155E-01  6.813000E+01
    6.7250  9.368504E-01  6.958500E+01
    6.7750  9.658965E-01  7.110750E+01
    6.8250  9.283528E-01  7.259250E+01
    6.8750  9.287607E-01  7.410000E+01
    6.9250  9.184336E-01  7.561250E+01
    6.9750  9.217736E-01  7.715250E+01
    7.0250  8.939474E-01  7.866750E+01
    7.0750  8.973551E-01  8.021000E+01
    7.1250  8.977112E-01  8.177500E+01
    7.1750  8.612031E-01  8.329750E+01
    7.2250  9.525266E-01  8.500500E+01
    7.2750  9.518582E-01  8.673500E+01
    7.3250  9.199127E-01  8.843000E+01
    7.3750  1.025267E+00  9.034500E+01
    7.4250  1.045838E+00  9.232500E+01
    7.4750  1.012350E+00  9.426750E+01
    7.5250  1.022083E+00  9.625500E+01
    7.5750  1.025129E+00  9.827500E+01
    7.6250  1.053049E+00  1.003775E+02
    7.6750  9.763435E-01  1.023525E+02
    7.7250  9.966838E-01  1.043950E+02
    7.7750  9.248957E-01  1.063150E+02
    7.8250  9.143027E-01  1.082375E+02
    7.8750  1.024815E+00  1.104200E+02
    7.9250  1.022357E+00  1.126250E+02
    7.9750  1.032470E+00  1.148800E+02

g(r)  :OW      OW      

        r      g(r)         n(r)

    2.3750  0.000000E+00  0.000000E+00
    2.4250  0.000000E+00  0.000000E+00
    2.4750  1.367961E-03  1.438849E-04
    2.5250  1.051458E-02  1.294964E-03
    2.5750  7.045564E-02  9.316547E-03
    2.6250  2.447390E-01  3.827338E-02
    2.6750  6.060231E-01  1.127338E-01
    2.7250  1.250920E+00  2.722302E-01
    2.7750  1.720143E+00  4.996763E-01
    2.8250  2.045145E+00  7.799281E-01
    2.8750  2.213886E+00  1.094137E+00
    2.9250  2.207162E+00  1.418381E+00
    2.9750  2.092885E+00  1.736439E+00
    3.0250  1.969785E+00  2.045935E+00
    3.0750  1.893620E+00  2.353381E+00
    3.1250  1.767867E+00  2.649820E+00
    3.1750  1.603729E+00  2.927410E+00
    3.2250  1.478250E+00  3.191403E+00
    3.2750  1.377401E+00  3.445072E+00
    3.3250  1.286830E+00  3.689353E+00
    3.3750  1.256526E+00  3.935108E+00
    3.4250  1.202963E+00  4.177410E+00
    3.4750  1.209364E+00  4.428165E+00
    3.5250  1.177491E+00  4.679388E+00
    3.5750  1.102987E+00  4.921439E+00
    3.6250  1.112786E+00  5.172518E+00
    3.6750  1.044709E+00  5.414784E+00
    3.7250  9.963183E-01  5.652158E+00
    3.7750  9.947981E-01  5.895576E+00
    3.8250  9.620876E-01  6.137266E+00
    3.8750  9.316998E-01  6.377482E+00
    3.9250  9.657718E-01  6.632950E+00
    3.9750  9.633729E-01  6.894317E+00
    4.0250  9.562685E-01  7.160324E+00
    4.0750  9.435434E-01  7.429353E+00
    4.1250  9.417388E-01  7.704496E+00
    4.1750  9.008086E-01  7.974101E+00
    4.2250  8.902939E-01  8.246978E+00
    4.2750  8.848362E-01  8.524640E+00
    4.3250  9.060465E-01  8.815647E+00
    4.3750  9.016541E-01  9.111978E+00
    4.4250  9.042892E-01  9.416007E+00
    4.4750  8.858686E-01  9.720612E+00
    4.5250  9.069163E-01  1.003946E+01
    4.5750  9.007137E-01  1.036317E+01
    4.6250  9.233597E-01  1.070230E+01
    4.6750  9.401391E-01  1.105511E+01
    4.7250  9.213797E-01  1.140831E+01
    4.7750  9.269930E-01  1.177122E+01
    4.8250  9.379361E-01  1.214615E+01
    4.8750  9.121839E-01  1.251838E+01
    4.9250  9.501562E-01  1.291410E+01
    4.9750  9.641643E-01  1.332385E+01
    5.0250  9.298897E-01  1.372701E+01
    5.0750  9.337816E-01  1.413996E+01
    5.1250  9.362287E-01  1.456219E+01
    5.1750  9.665690E-01  1.500665E+01
    5.2250  9.675731E-01  1.546022E+01
    5.2750  9.777014E-01  1.592734E+01
    5.3250  1.001244E+00  1.641482E+01
    5.3750  1.002717E+00  1.691223E+01
    5.4250  9.879493E-01  1.741147E+01
    5.4750  1.031349E+00  1.794230E+01
    5.5250  1.030611E+00  1.848248E+01
    5.5750  1.027980E+00  1.903108E+01
    5.6250  1.018592E+00  1.958446E+01
    5.6750  1.025442E+00  2.015151E+01
    5.7250  1.021542E+00  2.072640E+01
    5.7750  1.020702E+00  2.131090E+01
    5.8250  1.037522E+00  2.191536E+01
    5.8750  1.025339E+00  2.252302E+01
    5.9250  1.029948E+00  2.314385E+01
    5.9750  1.042534E+00  2.378291E+01
    6.0250  1.035460E+00  2.442831E+01
    6.0750  1.021437E+00  2.507558E+01
    6.1250  1.036380E+00  2.574317E+01
    6.1750  1.044278E+00  2.642687E+01
    6.2250  1.047303E+00  2.712371E+01
    6.2750  1.026423E+00  2.781766E+01
    6.3250  1.011621E+00  2.851255E+01
    6.3750  1.067777E+00  2.925766E+01
    6.4250  1.031633E+00  2.998888E+01
    6.4750  1.035550E+00  3.073435E+01
    6.5250  1.027416E+00  3.148543E+01
    6.5750  1.005162E+00  3.223155E+01
    6.6250  1.002075E+00  3.298673E+01
    6.6750  9.986860E-01  3.375076E+01
    6.7250  1.025581E+00  3.454716E+01
    6.7750  9.871767E-01  3.532518E+01
    6.8250  9.897662E-01  3.611680E+01
    6.8750  9.949686E-01  3.692428E+01
    6.9250  1.002277E+00  3.774957E+01
    6.9750  9.825333E-01  3.857032E+01
    7.0250  9.769173E-01  3.939813E+01
    7.0750  9.990678E-01  4.025680E+01
    7.1250  9.944627E-01  4.112363E+01
    7.1750  9.826857E-01  4.199227E+01
    7.2250  9.934522E-01  4.288270E+01
    7.2750  1.000981E+00  4.379234E+01
    7.3250  9.882214E-01  4.470277E+01
    7.3750  9.583434E-01  4.559777E+01
    7.4250  9.840880E-01  4.652932E+01
    7.4750  9.887014E-01  4.747788E+01
    7.5250  9.779370E-01  4.842871E+01
    7.5750  9.767528E-01  4.939104E+01
    7.6250  9.906853E-01  5.038004E+01
    7.6750  9.863550E-01  5.137766E+01
    7.7250  9.896012E-01  5.239165E+01
    7.7750  9.876922E-01  5.341683E+01
    7.8250  1.008332E+00  5.447694E+01
    7.8750  1.001481E+00  5.554335E+01
    7.9250  9.892171E-01  5.661011E+01
    7.9750  9.978016E-01  5.769975E+01

g(r)  :OW      HW      

        r      g(r)         n(r)

    1.3750  0.000000E+00  0.000000E+00
    1.4250  0.000000E+00  0.000000E+00
    1.4750  2.407096E-04  1.798561E-05
    1.5250  8.331864E-03  6.834532E-04
    1.5750  3.567863E-02  3.723022E-03
    1.6250  1.152270E-01  1.417266E-02
    1.6750  2.908202E-01  4.219424E-02
    1.7250  5.447172E-01  9.785971E-02
    1.7750  7.509998E-01  1.791187E-01
    1.8250  8.890413E-01  2.808094E-01
    1.8750  9.818431E-01  3.993525E-01
    1.9250  9.741850E-01  5.233273E-01
    1.9750  8.841327E-01  6.417626E-01
    2.0250  8.413961E-01  7.602518E-01
    2.0750  7.637519E-01  8.731835E-01
    2.1250  6.865985E-01  9.796583E-01
    2.1750  5.998193E-01  1.077104E+00
    2.2250  5.265121E-01  1.166619E+00
    2.2750  4.723562E-01  1.250576E+00
    2.3250  4.436363E-01  1.332932E+00
    2.3750  4.310036E-01  1.416421E+00
    2.4250  4.022817E-01  1.497662E+00
    2.4750  3.803788E-01  1.577680E+00
    2.5250  3.878074E-01  1.662590E+00
    2.5750  4.074895E-01  1.755378E+00
    2.6250  4.154482E-01  1.853687E+00
    2.6750  4.439046E-01  1.962770E+00
    2.7250  4.806619E-01  2.085342E+00
    2.7750  5.425264E-01  2.228813E+00
    2.8250  6.185834E-01  2.398345E+00
    2.8750  6.973678E-01  2.596295E+00
    2.9250  7.607781E-01  2.819820E+00
    2.9750  8.263724E-01  3.070989E+00
    3.0250  9.211331E-01  3.360450E+00
    3.0750  1.034047E+00  3.696223E+00
    3.1250  1.143611E+00  4.079748E+00
    3.1750  1.235892E+00  4.507590E+00
    3.2250  1.303363E+00  4.973112E+00
    3.2750  1.368465E+00  5.477158E+00
    3.3250  1.389534E+00  6.004712E+00
    3.3750  1.409131E+00  6.555917E+00
    3.4250  1.405749E+00  7.122212E+00
    3.4750  1.395383E+00  7.700863E+00
    3.5250  1.370242E+00  8.285558E+00
    3.5750  1.337468E+00  8.872572E+00
    3.6250  1.332553E+00  9.473903E+00
    3.6750  1.284674E+00  1.006973E+01
    3.7250  1.239321E+00  1.066027E+01
    3.7750  1.201307E+00  1.124817E+01
    3.8250  1.165022E+00  1.183351E+01
    3.8750  1.124304E+00  1.241326E+01
    3.9250  1.090913E+00  1.299040E+01
    3.9750  1.049455E+00  1.355984E+01
    4.0250  1.038770E+00  1.413775E+01
    4.0750  1.014066E+00  1.471603E+01
    4.1250  1.007885E+00  1.530496E+01
    4.1750  9.930528E-01  1.589939E+01
    4.2250  9.870279E-01  1.650444E+01
    4.2750  9.664821E-01  1.711101E+01
    4.3250  9.565287E-01  1.772545E+01
    4.3750  9.568720E-01  1.835441E+01
    4.4250  9.377240E-01  1.898495E+01
    4.4750  9.473029E-01  1.963640E+01
    4.5250  9.283000E-01  2.028914E+01
    4.5750  9.296649E-01  2.095736E+01
    4.6250  9.270813E-01  2.163836E+01
    4.6750  9.213277E-01  2.232986E+01
    4.7250  9.244997E-01  2.303865E+01
    4.7750  9.367784E-01  2.377214E+01
    4.8250  9.466199E-01  2.452894E+01
    4.8750  9.353896E-01  2.529234E+01
    4.9250  9.338755E-01  2.607022E+01
    4.9750  9.429190E-01  2.687165E+01
    5.0250  9.371493E-01  2.768428E+01
    5.0750  9.375029E-01  2.851347E+01
    5.1250  9.449027E-01  2.936576E+01
    5.1750  9.430227E-01  3.023302E+01
    5.2250  9.575206E-01  3.113072E+01
    5.2750  9.633401E-01  3.205124E+01
    5.3250  9.687178E-01  3.299453E+01
    5.3750  9.785880E-01  3.396541E+01
    5.4250  9.879671E-01  3.496392E+01
    5.4750  9.955839E-01  3.598876E+01
    5.5250  9.966563E-01  3.703353E+01
    5.5750  1.005248E+00  3.810646E+01
    5.6250  1.016308E+00  3.921074E+01
    5.6750  1.009130E+00  4.032680E+01
    5.7250  1.018059E+00  4.147266E+01
    5.7750  1.016509E+00  4.263685E+01
    5.8250  1.020928E+00  4.382644E+01
    5.8750  1.024110E+00  4.504031E+01
    5.9250  1.024518E+00  4.627541E+01
    5.9750  1.023272E+00  4.752993E+01
    6.0250  1.027279E+00  4.881052E+01
    6.0750  1.020118E+00  5.010338E+01
    6.1250  1.024220E+00  5.142290E+01
    6.1750  1.023579E+00  5.276320E+01
    6.2250  1.022475E+00  5.412383E+01
    6.2750  1.019587E+00  5.550250E+01
    6.3250  1.028653E+00  5.691568E+01
    6.3750  1.014140E+00  5.833104E+01
    6.4250  1.016446E+00  5.977196E+01
    6.4750  1.016537E+00  6.123552E+01
    6.5250  1.008656E+00  6.271025E+01
    6.5750  1.010008E+00  6.420968E+01
    6.6250  1.007159E+00  6.572770E+01
    6.6750  1.009641E+00  6.727252E+01
    6.7250  1.007666E+00  6.883750E+01
    6.7750  1.002923E+00  7.041836E+01
    6.8250  1.006351E+00  7.202813E+01
    6.8750  1.006714E+00  7.366216E+01
    6.9250  1.005510E+00  7.531806E+01
    6.9750  1.003084E+00  7.699390E+01
    7.0250  1.000467E+00  7.868942E+01
    7.0750  1.000721E+00  8.040960E+01
    7.1250  9.980943E-01  8.214960E+01
    7.1750  9.903159E-01  8.390036E+01
    7.2250  9.928803E-01  8.568020E+01
    7.2750  9.912336E-01  8.748176E+01
    7.3250  9.938340E-01  8.931297E+01
    7.3750  9.880786E-01  9.115851E+01
    7.4250  9.894650E-01  9.303178E+01
    7.4750  9.889639E-01  9.492941E+01
    7.5250  9.840970E-01  9.684304E+01
    7.5750  9.895222E-01  9.879288E+01
    7.6250  9.826950E-01  1.007549E+02
    7.6750  9.853058E-01  1.027480E+02
    7.7250  9.928748E-01  1.047827E+02
    7.7750  9.975084E-01  1.068535E+02
    7.8250  9.976490E-01  1.089512E+02
    7.8750  1.004597E+00  1.110907E+02
    7.9250  9.995576E-01  1.132465E+02
    7.9750  1.001631E+00  1.154341E+02

g(r)  :HW      HW      

        r      g(r)         n(r)

    1.2750  0.000000E+00  0.000000E+00
    1.3250  0.000000E+00  0.000000E+00
    1.3750  8.309733E-04  5.395683E-05
    1.4250  7.736883E-04  1.079137E-04
    1.4750  2.407096E-03  2.877698E-04
    1.5250  3.602968E-03  5.755396E-04
    1.5750  5.489020E-03  1.043165E-03
    1.6250  1.170119E-02  2.104317E-03
    1.6750  2.743939E-02  4.748201E-03
    1.7250  4.294378E-02  9.136691E-03
    1.7750  7.380344E-02  1.712230E-02
    1.8250  1.169874E-01  3.050360E-02
    1.8750  1.736958E-01  5.147482E-02
    1.9250  2.552413E-01  8.395683E-02
    1.9750  3.282770E-01  1.279317E-01
    2.0250  4.176329E-01  1.867446E-01
    2.0750  5.137901E-01  2.627158E-01
    2.1250  6.170108E-01  3.583993E-01
    2.1750  7.051031E-01  4.729496E-01
    2.2250  8.171147E-01  6.118705E-01
    2.2750  8.781292E-01  7.679496E-01
    2.3250  9.446284E-01  9.433094E-01
    2.3750  1.038141E+00  1.144406E+00
    2.4250  1.092760E+00  1.365090E+00
    2.4750  1.119505E+00  1.600594E+00
    2.5250  1.149211E+00  1.852212E+00
    2.5750  1.155567E+00  2.115342E+00
    2.6250  1.174823E+00  2.393345E+00
    2.6750  1.153640E+00  2.676835E+00
    2.7250  1.107674E+00  2.959299E+00
    2.7750  1.092126E+00  3.248112E+00
    2.8250  1.035829E+00  3.531996E+00
    2.8750  1.018362E+00  3.821061E+00
    2.9250  9.870893E-01  4.111079E+00
    2.9750  9.493371E-01  4.399622E+00
    3.0250  9.298900E-01  4.691835E+00
    3.0750  9.201130E-01  4.990612E+00
    3.1250  9.177207E-01  5.298381E+00
    3.1750  9.004742E-01  5.610108E+00
    3.2250  9.004150E-01  5.931709E+00
    3.2750  9.222061E-01  6.271385E+00
    3.3250  9.286932E-01  6.623975E+00
    3.3750  9.375205E-01  6.990701E+00
    3.4250  9.587004E-01  7.376906E+00
    3.4750  9.663114E-01  7.777626E+00
    3.5250  9.778287E-01  8.194874E+00
    3.5750  9.789850E-01  8.624550E+00
    3.6250  1.009040E+00  9.079892E+00
    3.6750  1.015237E+00  9.550755E+00
    3.7250  1.039310E+00  1.004599E+01
    3.7750  1.050110E+00  1.055989E+01
    3.8250  1.069479E+00  1.109723E+01
    3.8750  1.075124E+00  1.165162E+01
    3.9250  1.083978E+00  1.222509E+01
    3.9750  1.085783E+00  1.281424E+01
    4.0250  1.103394E+00  1.342811E+01
    4.0750  1.082571E+00  1.404545E+01
    4.1250  1.089728E+00  1.468221E+01
    4.1750  1.072527E+00  1.532421E+01
    4.2250  1.050989E+00  1.596847E+01
    4.2750  1.054089E+00  1.663002E+01
    4.3250  1.048757E+00  1.730371E+01
    4.3750  1.034910E+00  1.798396E+01
    4.4250  1.016148E+00  1.866723E+01
    4.4750  1.012817E+00  1.936374E+01
    4.5250  1.018721E+00  2.008005E+01
    4.5750  9.951490E-01  2.079534E+01
    4.6250  9.912797E-01  2.152351E+01
    4.6750  9.828183E-01  2.226115E+01
    4.7250  9.826548E-01  2.301453E+01
    4.7750  9.834082E-01  2.378453E+01
    4.8250  9.792402E-01  2.456741E+01
    4.8750  9.878393E-01  2.537362E+01
    4.9250  9.804505E-01  2.619029E+01
    4.9750  9.830608E-01  2.702585E+01
    5.0250  9.816401E-01  2.787705E+01
    5.0750  9.831549E-01  2.874662E+01
    5.1250  9.806952E-01  2.963119E+01
    5.1750  9.724751E-01  3.052554E+01
    5.2250  9.855678E-01  3.144953E+01
    5.2750  9.856256E-01  3.239135E+01
    5.3250  9.863201E-01  3.335178E+01
    5.3750  9.784974E-01  3.432257E+01
    5.4250  9.722890E-01  3.530523E+01
    5.4750  9.802433E-01  3.631428E+01
    5.5250  9.784180E-01  3.733993E+01
    5.5750  9.842348E-01  3.839043E+01
    5.6250  9.871917E-01  3.946308E+01
    5.6750  9.837285E-01  4.055104E+01
    5.7250  9.826641E-01  4.165707E+01
    5.7750  9.914454E-01  4.279255E+01
    5.8250  9.943945E-01  4.395122E+01
    5.8750  1.000514E+00  4.513712E+01
    5.9250  9.980066E-01  4.634027E+01
    5.9750  1.006313E+00  4.757399E+01
    6.0250  9.991450E-01  4.881951E+01
    6.0750  1.011447E+00  5.010138E+01
    6.1250  1.016514E+00  5.141097E+01
    6.1750  1.020557E+00  5.274732E+01
    6.2250  1.019812E+00  5.410441E+01
    6.2750  1.017618E+00  5.548041E+01
    6.3250  1.008361E+00  5.686572E+01
    6.3750  1.003508E+00  5.826624E+01
    6.4250  1.005573E+00  5.969174E+01
    6.4750  1.009578E+00  6.114529E+01
    6.5250  1.010145E+00  6.262219E+01
    6.5750  1.008530E+00  6.411942E+01
    6.6250  1.014557E+00  6.564860E+01
    6.6750  1.010382E+00  6.719455E+01
    6.7250  1.005466E+00  6.875612E+01
    6.7750  1.003300E+00  7.033757E+01
    6.8250  9.954781E-01  7.192995E+01
    6.8750  9.985477E-01  7.355072E+01
    6.9250  9.997433E-01  7.519712E+01
    6.9750  9.985307E-01  7.686536E+01
    7.0250  1.001199E+00  7.856212E+01
    7.0750  1.001600E+00  8.028381E+01
    7.1250  1.000477E+00  8.202797E+01
    7.1750  9.963997E-01  8.378948E+01
    7.2250  9.970742E-01  8.557683E+01
    7.2750  9.979331E-01  8.739058E+01
    7.3250  9.998567E-01  8.923288E+01
    7.3750  9.918725E-01  9.108550E+01
    7.4250  9.915930E-01  9.296281E+01
    7.4750  9.985153E-01  9.487876E+01
    7.5250  9.973604E-01  9.681818E+01
    7.5750  9.987684E-01  9.878624E+01
    7.6250  9.954506E-01  1.007737E+02
    7.6750  9.987760E-01  1.027941E+02
    7.7250  9.916988E-01  1.048264E+02
    7.7750  9.959403E-01  1.068939E+02
    7.8250  9.954678E-01  1.089871E+02
    7.8750  9.994875E-01  1.111156E+02
    7.9250  1.001184E+00  1.132749E+02
    7.9750  9.964181E-01  1.154512E+02

 time elapsed since job start =         647.362 seconds

