
                    DL_POLY Classic 1.2

                              Running on    8 nodes


 ************************************************************************************************************************
 ************************************************************************************************************************
 ************************************************************************************************************************
 ***************     DL_POLY TEST CASE 3: Valinomycin in water                                            ***************
 ************************************************************************************************************************
 ************************************************************************************************************************
 ************************************************************************************************************************


 SIMULATION CONTROL PARAMETERS


 velocity verlet integration selected

 simulation temperature           3.1000E+02

 simulation pressure (katm)       0.0000E+00

 Nose-Hoover 
 thermostat relaxation time       5.0000E-01

 selected number of timesteps          500

 equilibration period                  100

 multiple timestep interval              1

 scaled restart requested

 temperature scaling on
 temperature scaling interval            1

 data printing interval                  1

 data stacking interval                100

 statistics file interval                5

 simulation timestep              2.0000E-03

 real space cut off               1.2000E+01

 border width of Verlet shell     1.2000E+00

 real space cut off (vdw)         1.0000E+01


 Electrostatics : reaction field
 Specified precision parameter :   1.0000E-05
 Calculated damping parameter:   2.3464E-01


 relative dielectric constant     7.0000E+01

 tolerance for SHAKE              1.0000E-08

 tolerance for Quaternions        1.0000E-05

 user allocated job time (h)      1.6667

 job closure time        (s)     100.000


SYSTEM SPECIFICATION

 energy units=kcal/ mol 


 number of molecular types               2

 molecular species type                  1


 name of species:             Valinomycin                             

 number of molecules                     1

 number of atoms/sites                 168


 atomic characteristics:

                      site     name          mass        charge    repeat    freeze

                         1     CT          12.01000     0.28200         3         0
                         4     C           12.01000     0.46700         3         0
                         7     CT          12.01000    -0.01830         3         0
                        10     CT          12.01000    -0.13900         6         0
                        16     CT          12.01000    -0.14950         3         0
                        19     CT          12.01000    -0.01830         3         0
                        22     CT          12.01000    -0.07300         2         0
                        24     CT          12.01000    -0.13900         5         0
                        29     CT          12.01000    -0.07300         1         0
                        30     CT          12.01000    -0.13900         1         0
                        31     CT          12.01000    -0.01830         3         0
                        34     CT          12.01000    -0.13900         6         0
                        40     C           12.01000     0.69200         3         0
                        43     CT          12.01000     0.27200         3         0
                        46     C           12.01000     0.47700         3         0
                        49     CT          12.01000    -0.07300         3         0
                        52     C           12.01000     0.69200         3         0
                        55     H            1.00800     0.21100         2         0
                        57     HC           1.00800    -0.00900         3         0
                        60     HC           1.00800     0.03700         3         0
                        63     HC           1.00800     0.04730        18         0
                        81     HC           1.00800     0.05800         9         0
                        90     HC           1.00800     0.03700         3         0
                        93     HC           1.00800     0.05800         2         0
                        95     HC           1.00800     0.04730        18         0
                       113     HC           1.00800     0.03700         3         0
                       116     HC           1.00800     0.04730        18         0
                       134     HC           1.00800    -0.00900         2         0
                       136     H            1.00800     0.21100         1         0
                       137     HC           1.00800    -0.00900         1         0
                       138     HC           1.00800     0.05800         1         0
                       139     H            1.00800     0.21100         1         0
                       140     HC           1.00800     0.05800         1         0
                       141     H            1.00800     0.21100         2         0
                       143     HC           1.00800     0.05800         2         0
                       145     N           14.01000    -0.40100         6         0
                       151     OS          16.00000    -0.45500         3         0
                       154     Oe          16.00000    -0.41600         3         0
                       157     O           16.00000    -0.40500         3         0
                       160     Oe          16.00000    -0.41600         3         0
                       163     O           16.00000    -0.40500         3         0
                       166     OS          16.00000    -0.45500         3         0

 number of bond constraints            168


 constraint bond details:

                          index     index  bondlength

                              4         1    1.486105
                             31         1    1.523565
                             57         1    1.009680
                            151         1    1.442899
                             34        31    1.524913
                             37        31    1.506080
                            113        31    0.993719
                            116        34    0.992284
                            118        34    1.014433
                            119        34    0.992555
                            125        37    0.994283
                            127        37    1.010641
                            128        37    1.005550
                            163         4    1.244236
                            146         4    1.315488
                            146        56    1.001914
                            146        23    1.454486
                             94        23    1.008227
                             23         8    1.543823
                             61         8    0.999074
                             11         8    1.514619
                             14         8    1.501739
                             64        14    1.002998
                             67        14    1.005779
                             68        14    0.999233
                             73        11    0.986398
                             76        11    0.998101
                             77        11    0.985557
                             41        23    1.512212
                            155        41    1.233244
                            167        41    1.347607
                            167        44    1.461812
                            135        44    0.988338
                             44        17    1.524403
                             82        17    1.001773
                             85        17    0.980752
                             86        17    1.006294
                             47        44    1.514476
                            158        47    1.240752
                            149        47    1.335890
                            149       142    0.997261
                            149        50    1.462303
                            144        50    0.998004
                             50        20    1.513553
                             91        20    0.997102
                             25        20    1.539717
                             96        25    0.979453
                             99        25    0.980711
                            100        25    1.003605
                             28        20    1.531585
                            105        28    0.999707
                            108        28    1.000808
                            109        28    0.995455
                             53        50    1.509162
                            161        53    1.217565
                            152        53    1.344948
                            152         2    1.451880
                             58         2    0.998406
                             32         2    1.542298
                            114        32    0.994169
                             35        32    1.485713
                            117        35    1.002932
                            120        35    0.996168
                            121        35    1.002218
                             38        32    1.513793
                            126        38    0.987099
                            129        38    1.007039
                            130        38    0.998862
                              5         2    1.476429
                            164         5    1.245292
                            147         5    1.345528
                            147       136    1.000347
                            147        29    1.468647
                            137        29    0.994374
                             29         9    1.515361
                             62         9    1.008729
                             12         9    1.543147
                             78        12    1.007375
                             79        12    0.995093
                             80        12    1.011594
                             15         9    1.528393
                             69        15    0.998413
                             70        15    0.992463
                             71        15    1.003027
                             42        29    1.538416
                            156        42    1.196969
                            168        42    1.337440
                            168        45    1.454607
                            138        45    0.999003
                             45        18    1.539218
                             87        18    1.013893
                             88        18    0.992701
                             89        18    0.992267
                             48        45    1.536754
                            159        48    1.233537
                            150        48    1.345689
                            150       139    1.014450
                            150        51    1.478337
                            140        51    0.997726
                             51        21    1.532909
                             92        21    0.999932
                             26        21    1.517486
                            101        26    1.008826
                            102        26    0.993676
                            103        26    0.998177
                             30        21    1.516847
                            110        30    0.992335
                            111        30    0.995322
                            112        30    0.996005
                             54        51    1.518843
                            162        54    1.171709
                            153        54    1.340107
                            153         3    1.458518
                             59         3    1.000668
                             33         3    1.517590
                            115        33    0.994152
                             36        33    1.483032
                            122        36    0.986310
                            123        36    1.007546
                            124        36    1.007020
                             39        33    1.520240
                            131        39    1.004819
                            132        39    0.996229
                            133        39    0.991354
                              6         3    1.548029
                            165         6    1.222797
                            145         6    1.351446
                            145        55    0.990906
                            145        22    1.466169
                             93        22    1.004201
                             22         7    1.512640
                             60         7    1.002179
                             10         7    1.562525
                             63        10    0.980039
                             65        10    0.989969
                             66        10    1.015725
                             13         7    1.536684
                             72        13    1.010233
                             74        13    1.002323
                             75        13    1.008558
                             40        22    1.520833
                            154        40    1.210786
                            166        40    1.343005
                            166        43    1.470808
                            134        43    1.013113
                             43        16    1.527742
                             81        16    1.001291
                             83        16    0.999829
                             84        16    0.996005
                             46        43    1.544722
                            157        46    1.271581
                            148        46    1.283358
                            148       141    1.001623
                            148        49    1.464652
                            143        49    1.005979
                             49        19    1.539427
                             90        19    0.996794
                             24        19    1.551826
                             95        24    0.994511
                             97        24    0.984001
                             98        24    1.003867
                             27        19    1.476588
                            104        27    1.005209
                            106        27    1.002002
                            107        27    0.995524
                             52        49    1.509973
                            151        52    1.343128
                            160        52    1.206223

 number of bond angles                 312


 bond angle details:

                            key     index     index     index     f-const       angle

                           harm         4         1        31  1.2600E+02  111.100000    1.000000    0.000000    0.000000    0.000000
                           harm         4         1        57  7.0000E+01  109.500000    2.000000    0.000000    0.000000    0.000000
                           harm         4         1       151  1.4000E+02  109.500000    3.000000    0.000000    0.000000    0.000000
                           harm        31         1        57  7.0000E+01  109.500000    4.000000    0.000000    0.000000    0.000000
                           harm        31         1       151  1.0000E+02  109.500000    5.000000    0.000000    0.000000    0.000000
                           harm        57         1       151  7.0000E+01  109.500000    6.000000    0.000000    0.000000    0.000000
                           harm         5         2        32  1.2600E+02  111.100000    7.000000    0.000000    0.000000    0.000000
                           harm         5         2        58  7.0000E+01  109.500000    8.000000    0.000000    0.000000    0.000000
                           harm         5         2       152  1.4000E+02  109.500000    9.000000    0.000000    0.000000    0.000000
                           harm        32         2        58  7.0000E+01  109.500000   10.000000    0.000000    0.000000    0.000000
                           harm        32         2       152  1.0000E+02  109.500000   11.000000    0.000000    0.000000    0.000000
                           harm        58         2       152  7.0000E+01  109.500000   12.000000    0.000000    0.000000    0.000000
                           harm         6         3        33  1.2600E+02  111.100000   13.000000    0.000000    0.000000    0.000000
                           harm         6         3        59  7.0000E+01  109.500000   14.000000    0.000000    0.000000    0.000000
                           harm         6         3       153  1.4000E+02  109.500000   15.000000    0.000000    0.000000    0.000000
                           harm        33         3        59  7.0000E+01  109.500000   16.000000    0.000000    0.000000    0.000000
                           harm        33         3       153  1.0000E+02  109.500000   17.000000    0.000000    0.000000    0.000000
                           harm        59         3       153  7.0000E+01  109.500000   18.000000    0.000000    0.000000    0.000000
                           harm         1         4       146  1.4000E+02  116.600000   19.000000    0.000000    0.000000    0.000000
                           harm         1         4       163  1.6000E+02  120.400000   20.000000    0.000000    0.000000    0.000000
                           harm       146         4       163  1.6000E+02  122.900000   21.000000    0.000000    0.000000    0.000000
                           harm         2         5       147  1.4000E+02  116.600000   22.000000    0.000000    0.000000    0.000000
                           harm         2         5       164  1.6000E+02  120.400000   23.000000    0.000000    0.000000    0.000000
                           harm       147         5       164  1.6000E+02  122.900000   24.000000    0.000000    0.000000    0.000000
                           harm         3         6       145  1.4000E+02  116.600000   25.000000    0.000000    0.000000    0.000000
                           harm         3         6       165  1.6000E+02  120.400000   26.000000    0.000000    0.000000    0.000000
                           harm       145         6       165  1.6000E+02  122.900000   27.000000    0.000000    0.000000    0.000000
                           harm        10         7        13  8.0000E+01  109.500000   28.000000    0.000000    0.000000    0.000000
                           harm        10         7        22  8.0000E+01  109.500000   29.000000    0.000000    0.000000    0.000000
                           harm        10         7        60  7.0000E+01  109.500000   30.000000    0.000000    0.000000    0.000000
                           harm        13         7        22  8.0000E+01  109.500000   31.000000    0.000000    0.000000    0.000000
                           harm        13         7        60  7.0000E+01  109.500000   32.000000    0.000000    0.000000    0.000000
                           harm        22         7        60  7.0000E+01  109.500000   33.000000    0.000000    0.000000    0.000000
                           harm        11         8        14  8.0000E+01  109.500000   34.000000    0.000000    0.000000    0.000000
                           harm        11         8        23  8.0000E+01  109.500000   35.000000    0.000000    0.000000    0.000000
                           harm        11         8        61  7.0000E+01  109.500000   36.000000    0.000000    0.000000    0.000000
                           harm        14         8        23  8.0000E+01  109.500000   37.000000    0.000000    0.000000    0.000000
                           harm        14         8        61  7.0000E+01  109.500000   38.000000    0.000000    0.000000    0.000000
                           harm        23         8        61  7.0000E+01  109.500000   39.000000    0.000000    0.000000    0.000000
                           harm        12         9        15  8.0000E+01  109.500000   40.000000    0.000000    0.000000    0.000000
                           harm        12         9        29  8.0000E+01  109.500000   41.000000    0.000000    0.000000    0.000000
                           harm        12         9        62  7.0000E+01  109.500000   42.000000    0.000000    0.000000    0.000000
                           harm        15         9        29  8.0000E+01  109.500000   43.000000    0.000000    0.000000    0.000000
                           harm        15         9        62  7.0000E+01  109.500000   44.000000    0.000000    0.000000    0.000000
                           harm        29         9        62  7.0000E+01  109.500000   45.000000    0.000000    0.000000    0.000000
                           harm         7        10        63  7.0000E+01  109.500000   46.000000    0.000000    0.000000    0.000000
                           harm         7        10        65  7.0000E+01  109.500000   47.000000    0.000000    0.000000    0.000000
                           harm         7        10        66  7.0000E+01  109.500000   48.000000    0.000000    0.000000    0.000000
                           harm        63        10        65  7.0000E+01  109.500000   49.000000    0.000000    0.000000    0.000000
                           harm        63        10        66  7.0000E+01  109.500000   50.000000    0.000000    0.000000    0.000000
                           harm        65        10        66  7.0000E+01  109.500000   51.000000    0.000000    0.000000    0.000000
                           harm         8        11        73  7.0000E+01  109.500000   52.000000    0.000000    0.000000    0.000000
                           harm         8        11        76  7.0000E+01  109.500000   53.000000    0.000000    0.000000    0.000000
                           harm         8        11        77  7.0000E+01  109.500000   54.000000    0.000000    0.000000    0.000000
                           harm        73        11        76  7.0000E+01  109.500000   55.000000    0.000000    0.000000    0.000000
                           harm        73        11        77  7.0000E+01  109.500000   56.000000    0.000000    0.000000    0.000000
                           harm        76        11        77  7.0000E+01  109.500000   57.000000    0.000000    0.000000    0.000000
                           harm         9        12        78  7.0000E+01  109.500000   58.000000    0.000000    0.000000    0.000000
                           harm         9        12        79  7.0000E+01  109.500000   59.000000    0.000000    0.000000    0.000000
                           harm         9        12        80  7.0000E+01  109.500000   60.000000    0.000000    0.000000    0.000000
                           harm        78        12        79  7.0000E+01  109.500000   61.000000    0.000000    0.000000    0.000000
                           harm        78        12        80  7.0000E+01  109.500000   62.000000    0.000000    0.000000    0.000000
                           harm        79        12        80  7.0000E+01  109.500000   63.000000    0.000000    0.000000    0.000000
                           harm         7        13        72  7.0000E+01  109.500000   64.000000    0.000000    0.000000    0.000000
                           harm         7        13        74  7.0000E+01  109.500000   65.000000    0.000000    0.000000    0.000000
                           harm         7        13        75  7.0000E+01  109.500000   66.000000    0.000000    0.000000    0.000000
                           harm        72        13        74  7.0000E+01  109.500000   67.000000    0.000000    0.000000    0.000000
                           harm        72        13        75  7.0000E+01  109.500000   68.000000    0.000000    0.000000    0.000000
                           harm        74        13        75  7.0000E+01  109.500000   69.000000    0.000000    0.000000    0.000000
                           harm         8        14        64  7.0000E+01  109.500000   70.000000    0.000000    0.000000    0.000000
                           harm         8        14        67  7.0000E+01  109.500000   71.000000    0.000000    0.000000    0.000000
                           harm         8        14        68  7.0000E+01  109.500000   72.000000    0.000000    0.000000    0.000000
                           harm        64        14        67  7.0000E+01  109.500000   73.000000    0.000000    0.000000    0.000000
                           harm        64        14        68  7.0000E+01  109.500000   74.000000    0.000000    0.000000    0.000000
                           harm        67        14        68  7.0000E+01  109.500000   75.000000    0.000000    0.000000    0.000000
                           harm         9        15        69  7.0000E+01  109.500000   76.000000    0.000000    0.000000    0.000000
                           harm         9        15        70  7.0000E+01  109.500000   77.000000    0.000000    0.000000    0.000000
                           harm         9        15        71  7.0000E+01  109.500000   78.000000    0.000000    0.000000    0.000000
                           harm        69        15        70  7.0000E+01  109.500000   79.000000    0.000000    0.000000    0.000000
                           harm        69        15        71  7.0000E+01  109.500000   80.000000    0.000000    0.000000    0.000000
                           harm        70        15        71  7.0000E+01  109.500000   81.000000    0.000000    0.000000    0.000000
                           harm        43        16        81  7.0000E+01  109.500000   82.000000    0.000000    0.000000    0.000000
                           harm        43        16        83  7.0000E+01  109.500000   83.000000    0.000000    0.000000    0.000000
                           harm        43        16        84  7.0000E+01  109.500000   84.000000    0.000000    0.000000    0.000000
                           harm        81        16        83  7.0000E+01  109.500000   85.000000    0.000000    0.000000    0.000000
                           harm        81        16        84  7.0000E+01  109.500000   86.000000    0.000000    0.000000    0.000000
                           harm        83        16        84  7.0000E+01  109.500000   87.000000    0.000000    0.000000    0.000000
                           harm        44        17        82  7.0000E+01  109.500000   88.000000    0.000000    0.000000    0.000000
                           harm        44        17        85  7.0000E+01  109.500000   89.000000    0.000000    0.000000    0.000000
                           harm        44        17        86  7.0000E+01  109.500000   90.000000    0.000000    0.000000    0.000000
                           harm        82        17        85  7.0000E+01  109.500000   91.000000    0.000000    0.000000    0.000000
                           harm        82        17        86  7.0000E+01  109.500000   92.000000    0.000000    0.000000    0.000000
                           harm        85        17        86  7.0000E+01  109.500000   93.000000    0.000000    0.000000    0.000000
                           harm        45        18        87  7.0000E+01  109.500000   94.000000    0.000000    0.000000    0.000000
                           harm        45        18        88  7.0000E+01  109.500000   95.000000    0.000000    0.000000    0.000000
                           harm        45        18        89  7.0000E+01  109.500000   96.000000    0.000000    0.000000    0.000000
                           harm        87        18        88  7.0000E+01  109.500000   97.000000    0.000000    0.000000    0.000000
                           harm        87        18        89  7.0000E+01  109.500000   98.000000    0.000000    0.000000    0.000000
                           harm        88        18        89  7.0000E+01  109.500000   99.000000    0.000000    0.000000    0.000000
                           harm        24        19        27  8.0000E+01  109.500000  100.000000    0.000000    0.000000    0.000000
                           harm        24        19        49  8.0000E+01  109.500000  101.000000    0.000000    0.000000    0.000000
                           harm        24        19        90  7.0000E+01  109.500000  102.000000    0.000000    0.000000    0.000000
                           harm        27        19        49  8.0000E+01  109.500000  103.000000    0.000000    0.000000    0.000000
                           harm        27        19        90  7.0000E+01  109.500000  104.000000    0.000000    0.000000    0.000000
                           harm        49        19        90  7.0000E+01  109.500000  105.000000    0.000000    0.000000    0.000000
                           harm        25        20        28  8.0000E+01  109.500000  106.000000    0.000000    0.000000    0.000000
                           harm        25        20        50  8.0000E+01  109.500000  107.000000    0.000000    0.000000    0.000000
                           harm        25        20        91  7.0000E+01  109.500000  108.000000    0.000000    0.000000    0.000000
                           harm        28        20        50  8.0000E+01  109.500000  109.000000    0.000000    0.000000    0.000000
                           harm        28        20        91  7.0000E+01  109.500000  110.000000    0.000000    0.000000    0.000000
                           harm        50        20        91  7.0000E+01  109.500000  111.000000    0.000000    0.000000    0.000000
                           harm        26        21        30  8.0000E+01  109.500000  112.000000    0.000000    0.000000    0.000000
                           harm        26        21        51  8.0000E+01  109.500000  113.000000    0.000000    0.000000    0.000000
                           harm        26        21        92  7.0000E+01  109.500000  114.000000    0.000000    0.000000    0.000000
                           harm        30        21        51  8.0000E+01  109.500000  115.000000    0.000000    0.000000    0.000000
                           harm        30        21        92  7.0000E+01  109.500000  116.000000    0.000000    0.000000    0.000000
                           harm        51        21        92  7.0000E+01  109.500000  117.000000    0.000000    0.000000    0.000000
                           harm         7        22        40  1.2600E+02  111.100000  118.000000    0.000000    0.000000    0.000000
                           harm         7        22        93  7.0000E+01  109.500000  119.000000    0.000000    0.000000    0.000000
                           harm         7        22       145  1.6000E+02  109.700000  120.000000    0.000000    0.000000    0.000000
                           harm        40        22        93  7.0000E+01  109.500000  121.000000    0.000000    0.000000    0.000000
                           harm        40        22       145  1.2600E+02  110.100000  122.000000    0.000000    0.000000    0.000000
                           harm        93        22       145  7.0000E+01  109.500000  123.000000    0.000000    0.000000    0.000000
                           harm         8        23        41  1.2600E+02  111.100000  124.000000    0.000000    0.000000    0.000000
                           harm         8        23        94  7.0000E+01  109.500000  125.000000    0.000000    0.000000    0.000000
                           harm         8        23       146  1.6000E+02  109.700000  126.000000    0.000000    0.000000    0.000000
                           harm        41        23        94  7.0000E+01  109.500000  127.000000    0.000000    0.000000    0.000000
                           harm        41        23       146  1.2600E+02  110.100000  128.000000    0.000000    0.000000    0.000000
                           harm        94        23       146  7.0000E+01  109.500000  129.000000    0.000000    0.000000    0.000000
                           harm        19        24        95  7.0000E+01  109.500000  130.000000    0.000000    0.000000    0.000000
                           harm        19        24        97  7.0000E+01  109.500000  131.000000    0.000000    0.000000    0.000000
                           harm        19        24        98  7.0000E+01  109.500000  132.000000    0.000000    0.000000    0.000000
                           harm        95        24        97  7.0000E+01  109.500000  133.000000    0.000000    0.000000    0.000000
                           harm        95        24        98  7.0000E+01  109.500000  134.000000    0.000000    0.000000    0.000000
                           harm        97        24        98  7.0000E+01  109.500000  135.000000    0.000000    0.000000    0.000000
                           harm        20        25        96  7.0000E+01  109.500000  136.000000    0.000000    0.000000    0.000000
                           harm        20        25        99  7.0000E+01  109.500000  137.000000    0.000000    0.000000    0.000000
                           harm        20        25       100  7.0000E+01  109.500000  138.000000    0.000000    0.000000    0.000000
                           harm        96        25        99  7.0000E+01  109.500000  139.000000    0.000000    0.000000    0.000000
                           harm        96        25       100  7.0000E+01  109.500000  140.000000    0.000000    0.000000    0.000000
                           harm        99        25       100  7.0000E+01  109.500000  141.000000    0.000000    0.000000    0.000000
                           harm        21        26       101  7.0000E+01  109.500000  142.000000    0.000000    0.000000    0.000000
                           harm        21        26       102  7.0000E+01  109.500000  143.000000    0.000000    0.000000    0.000000
                           harm        21        26       103  7.0000E+01  109.500000  144.000000    0.000000    0.000000    0.000000
                           harm       101        26       102  7.0000E+01  109.500000  145.000000    0.000000    0.000000    0.000000
                           harm       101        26       103  7.0000E+01  109.500000  146.000000    0.000000    0.000000    0.000000
                           harm       102        26       103  7.0000E+01  109.500000  147.000000    0.000000    0.000000    0.000000
                           harm        19        27       104  7.0000E+01  109.500000  148.000000    0.000000    0.000000    0.000000
                           harm        19        27       106  7.0000E+01  109.500000  149.000000    0.000000    0.000000    0.000000
                           harm        19        27       107  7.0000E+01  109.500000  150.000000    0.000000    0.000000    0.000000
                           harm       104        27       106  7.0000E+01  109.500000  151.000000    0.000000    0.000000    0.000000
                           harm       104        27       107  7.0000E+01  109.500000  152.000000    0.000000    0.000000    0.000000
                           harm       106        27       107  7.0000E+01  109.500000  153.000000    0.000000    0.000000    0.000000
                           harm        20        28       105  7.0000E+01  109.500000  154.000000    0.000000    0.000000    0.000000
                           harm        20        28       108  7.0000E+01  109.500000  155.000000    0.000000    0.000000    0.000000
                           harm        20        28       109  7.0000E+01  109.500000  156.000000    0.000000    0.000000    0.000000
                           harm       105        28       108  7.0000E+01  109.500000  157.000000    0.000000    0.000000    0.000000
                           harm       105        28       109  7.0000E+01  109.500000  158.000000    0.000000    0.000000    0.000000
                           harm       108        28       109  7.0000E+01  109.500000  159.000000    0.000000    0.000000    0.000000
                           harm         9        29        42  1.2600E+02  111.100000  160.000000    0.000000    0.000000    0.000000
                           harm         9        29       137  7.0000E+01  109.500000  161.000000    0.000000    0.000000    0.000000
                           harm         9        29       147  1.6000E+02  109.700000  162.000000    0.000000    0.000000    0.000000
                           harm        42        29       137  7.0000E+01  109.500000  163.000000    0.000000    0.000000    0.000000
                           harm        42        29       147  1.2600E+02  110.100000  164.000000    0.000000    0.000000    0.000000
                           harm       137        29       147  7.0000E+01  109.500000  165.000000    0.000000    0.000000    0.000000
                           harm        21        30       110  7.0000E+01  109.500000  166.000000    0.000000    0.000000    0.000000
                           harm        21        30       111  7.0000E+01  109.500000  167.000000    0.000000    0.000000    0.000000
                           harm        21        30       112  7.0000E+01  109.500000  168.000000    0.000000    0.000000    0.000000
                           harm       110        30       111  7.0000E+01  109.500000  169.000000    0.000000    0.000000    0.000000
                           harm       110        30       112  7.0000E+01  109.500000  170.000000    0.000000    0.000000    0.000000
                           harm       111        30       112  7.0000E+01  109.500000  171.000000    0.000000    0.000000    0.000000
                           harm         1        31        34  8.0000E+01  109.500000  172.000000    0.000000    0.000000    0.000000
                           harm         1        31        37  8.0000E+01  109.500000  173.000000    0.000000    0.000000    0.000000
                           harm         1        31       113  7.0000E+01  109.500000  174.000000    0.000000    0.000000    0.000000
                           harm        34        31        37  8.0000E+01  109.500000  175.000000    0.000000    0.000000    0.000000
                           harm        34        31       113  7.0000E+01  109.500000  176.000000    0.000000    0.000000    0.000000
                           harm        37        31       113  7.0000E+01  109.500000  177.000000    0.000000    0.000000    0.000000
                           harm         2        32        35  8.0000E+01  109.500000  178.000000    0.000000    0.000000    0.000000
                           harm         2        32        38  8.0000E+01  109.500000  179.000000    0.000000    0.000000    0.000000
                           harm         2        32       114  7.0000E+01  109.500000  180.000000    0.000000    0.000000    0.000000
                           harm        35        32        38  8.0000E+01  109.500000  181.000000    0.000000    0.000000    0.000000
                           harm        35        32       114  7.0000E+01  109.500000  182.000000    0.000000    0.000000    0.000000
                           harm        38        32       114  7.0000E+01  109.500000  183.000000    0.000000    0.000000    0.000000
                           harm         3        33        36  8.0000E+01  109.500000  184.000000    0.000000    0.000000    0.000000
                           harm         3        33        39  8.0000E+01  109.500000  185.000000    0.000000    0.000000    0.000000
                           harm         3        33       115  7.0000E+01  109.500000  186.000000    0.000000    0.000000    0.000000
                           harm        36        33        39  8.0000E+01  109.500000  187.000000    0.000000    0.000000    0.000000
                           harm        36        33       115  7.0000E+01  109.500000  188.000000    0.000000    0.000000    0.000000
                           harm        39        33       115  7.0000E+01  109.500000  189.000000    0.000000    0.000000    0.000000
                           harm        31        34       116  7.0000E+01  109.500000  190.000000    0.000000    0.000000    0.000000
                           harm        31        34       118  7.0000E+01  109.500000  191.000000    0.000000    0.000000    0.000000
                           harm        31        34       119  7.0000E+01  109.500000  192.000000    0.000000    0.000000    0.000000
                           harm       116        34       118  7.0000E+01  109.500000  193.000000    0.000000    0.000000    0.000000
                           harm       116        34       119  7.0000E+01  109.500000  194.000000    0.000000    0.000000    0.000000
                           harm       118        34       119  7.0000E+01  109.500000  195.000000    0.000000    0.000000    0.000000
                           harm        32        35       117  7.0000E+01  109.500000  196.000000    0.000000    0.000000    0.000000
                           harm        32        35       120  7.0000E+01  109.500000  197.000000    0.000000    0.000000    0.000000
                           harm        32        35       121  7.0000E+01  109.500000  198.000000    0.000000    0.000000    0.000000
                           harm       117        35       120  7.0000E+01  109.500000  199.000000    0.000000    0.000000    0.000000
                           harm       117        35       121  7.0000E+01  109.500000  200.000000    0.000000    0.000000    0.000000
                           harm       120        35       121  7.0000E+01  109.500000  201.000000    0.000000    0.000000    0.000000
                           harm        33        36       122  7.0000E+01  109.500000  202.000000    0.000000    0.000000    0.000000
                           harm        33        36       123  7.0000E+01  109.500000  203.000000    0.000000    0.000000    0.000000
                           harm        33        36       124  7.0000E+01  109.500000  204.000000    0.000000    0.000000    0.000000
                           harm       122        36       123  7.0000E+01  109.500000  205.000000    0.000000    0.000000    0.000000
                           harm       122        36       124  7.0000E+01  109.500000  206.000000    0.000000    0.000000    0.000000
                           harm       123        36       124  7.0000E+01  109.500000  207.000000    0.000000    0.000000    0.000000
                           harm        31        37       125  7.0000E+01  109.500000  208.000000    0.000000    0.000000    0.000000
                           harm        31        37       127  7.0000E+01  109.500000  209.000000    0.000000    0.000000    0.000000
                           harm        31        37       128  7.0000E+01  109.500000  210.000000    0.000000    0.000000    0.000000
                           harm       125        37       127  7.0000E+01  109.500000  211.000000    0.000000    0.000000    0.000000
                           harm       125        37       128  7.0000E+01  109.500000  212.000000    0.000000    0.000000    0.000000
                           harm       127        37       128  7.0000E+01  109.500000  213.000000    0.000000    0.000000    0.000000
                           harm        32        38       126  7.0000E+01  109.500000  214.000000    0.000000    0.000000    0.000000
                           harm        32        38       129  7.0000E+01  109.500000  215.000000    0.000000    0.000000    0.000000
                           harm        32        38       130  7.0000E+01  109.500000  216.000000    0.000000    0.000000    0.000000
                           harm       126        38       129  7.0000E+01  109.500000  217.000000    0.000000    0.000000    0.000000
                           harm       126        38       130  7.0000E+01  109.500000  218.000000    0.000000    0.000000    0.000000
                           harm       129        38       130  7.0000E+01  109.500000  219.000000    0.000000    0.000000    0.000000
                           harm        33        39       131  7.0000E+01  109.500000  220.000000    0.000000    0.000000    0.000000
                           harm        33        39       132  7.0000E+01  109.500000  221.000000    0.000000    0.000000    0.000000
                           harm        33        39       133  7.0000E+01  109.500000  222.000000    0.000000    0.000000    0.000000
                           harm       131        39       132  7.0000E+01  109.500000  223.000000    0.000000    0.000000    0.000000
                           harm       131        39       133  7.0000E+01  109.500000  224.000000    0.000000    0.000000    0.000000
                           harm       132        39       133  7.0000E+01  109.500000  225.000000    0.000000    0.000000    0.000000
                           harm        22        40       154  1.6000E+02  120.400000  226.000000    0.000000    0.000000    0.000000
                           harm        22        40       166  1.4000E+02  117.000000  227.000000    0.000000    0.000000    0.000000
                           harm       154        40       166  1.4000E+02  123.000000  228.000000    0.000000    0.000000    0.000000
                           harm        23        41       155  1.6000E+02  120.400000  229.000000    0.000000    0.000000    0.000000
                           harm        23        41       167  1.4000E+02  117.000000  230.000000    0.000000    0.000000    0.000000
                           harm       155        41       167  1.4000E+02  123.000000  231.000000    0.000000    0.000000    0.000000
                           harm        29        42       156  1.6000E+02  120.400000  232.000000    0.000000    0.000000    0.000000
                           harm        29        42       168  1.4000E+02  117.000000  233.000000    0.000000    0.000000    0.000000
                           harm       156        42       168  1.4000E+02  123.000000  234.000000    0.000000    0.000000    0.000000
                           harm        16        43        46  1.2600E+02  111.100000  235.000000    0.000000    0.000000    0.000000
                           harm        16        43       134  7.0000E+01  109.500000  236.000000    0.000000    0.000000    0.000000
                           harm        16        43       166  1.0000E+02  109.500000  237.000000    0.000000    0.000000    0.000000
                           harm        46        43       134  7.0000E+01  109.500000  238.000000    0.000000    0.000000    0.000000
                           harm        46        43       166  1.4000E+02  109.500000  239.000000    0.000000    0.000000    0.000000
                           harm       134        43       166  7.0000E+01  109.500000  240.000000    0.000000    0.000000    0.000000
                           harm        17        44        47  1.2600E+02  111.100000  241.000000    0.000000    0.000000    0.000000
                           harm        17        44       135  7.0000E+01  109.500000  242.000000    0.000000    0.000000    0.000000
                           harm        17        44       167  1.0000E+02  109.500000  243.000000    0.000000    0.000000    0.000000
                           harm        47        44       135  7.0000E+01  109.500000  244.000000    0.000000    0.000000    0.000000
                           harm        47        44       167  1.4000E+02  109.500000  245.000000    0.000000    0.000000    0.000000
                           harm       135        44       167  7.0000E+01  109.500000  246.000000    0.000000    0.000000    0.000000
                           harm        18        45        48  1.2600E+02  111.100000  247.000000    0.000000    0.000000    0.000000
                           harm        18        45       138  7.0000E+01  109.500000  248.000000    0.000000    0.000000    0.000000
                           harm        18        45       168  1.0000E+02  109.500000  249.000000    0.000000    0.000000    0.000000
                           harm        48        45       138  7.0000E+01  109.500000  250.000000    0.000000    0.000000    0.000000
                           harm        48        45       168  1.4000E+02  109.500000  251.000000    0.000000    0.000000    0.000000
                           harm       138        45       168  7.0000E+01  109.500000  252.000000    0.000000    0.000000    0.000000
                           harm        43        46       148  1.4000E+02  116.600000  253.000000    0.000000    0.000000    0.000000
                           harm        43        46       157  1.6000E+02  120.400000  254.000000    0.000000    0.000000    0.000000
                           harm       148        46       157  1.6000E+02  122.900000  255.000000    0.000000    0.000000    0.000000
                           harm        44        47       149  1.4000E+02  116.600000  256.000000    0.000000    0.000000    0.000000
                           harm        44        47       158  1.6000E+02  120.400000  257.000000    0.000000    0.000000    0.000000
                           harm       149        47       158  1.6000E+02  122.900000  258.000000    0.000000    0.000000    0.000000
                           harm        45        48       150  1.4000E+02  116.600000  259.000000    0.000000    0.000000    0.000000
                           harm        45        48       159  1.6000E+02  120.400000  260.000000    0.000000    0.000000    0.000000
                           harm       150        48       159  1.6000E+02  122.900000  261.000000    0.000000    0.000000    0.000000
                           harm        19        49        52  1.2600E+02  111.100000  262.000000    0.000000    0.000000    0.000000
                           harm        19        49       143  7.0000E+01  109.500000  263.000000    0.000000    0.000000    0.000000
                           harm        19        49       148  1.6000E+02  109.700000  264.000000    0.000000    0.000000    0.000000
                           harm        52        49       143  7.0000E+01  109.500000  265.000000    0.000000    0.000000    0.000000
                           harm        52        49       148  1.2600E+02  110.100000  266.000000    0.000000    0.000000    0.000000
                           harm       143        49       148  7.0000E+01  109.500000  267.000000    0.000000    0.000000    0.000000
                           harm        20        50        53  1.2600E+02  111.100000  268.000000    0.000000    0.000000    0.000000
                           harm        20        50       144  7.0000E+01  109.500000  269.000000    0.000000    0.000000    0.000000
                           harm        20        50       149  1.6000E+02  109.700000  270.000000    0.000000    0.000000    0.000000
                           harm        53        50       144  7.0000E+01  109.500000  271.000000    0.000000    0.000000    0.000000
                           harm        53        50       149  1.2600E+02  110.100000  272.000000    0.000000    0.000000    0.000000
                           harm       144        50       149  7.0000E+01  109.500000  273.000000    0.000000    0.000000    0.000000
                           harm        21        51        54  1.2600E+02  111.100000  274.000000    0.000000    0.000000    0.000000
                           harm        21        51       140  7.0000E+01  109.500000  275.000000    0.000000    0.000000    0.000000
                           harm        21        51       150  1.6000E+02  109.700000  276.000000    0.000000    0.000000    0.000000
                           harm        54        51       140  7.0000E+01  109.500000  277.000000    0.000000    0.000000    0.000000
                           harm        54        51       150  1.2600E+02  110.100000  278.000000    0.000000    0.000000    0.000000
                           harm       140        51       150  7.0000E+01  109.500000  279.000000    0.000000    0.000000    0.000000
                           harm        49        52       151  1.4000E+02  117.000000  280.000000    0.000000    0.000000    0.000000
                           harm        49        52       160  1.6000E+02  120.400000  281.000000    0.000000    0.000000    0.000000
                           harm       151        52       160  1.4000E+02  123.000000  282.000000    0.000000    0.000000    0.000000
                           harm        50        53       152  1.4000E+02  117.000000  283.000000    0.000000    0.000000    0.000000
                           harm        50        53       161  1.6000E+02  120.400000  284.000000    0.000000    0.000000    0.000000
                           harm       152        53       161  1.4000E+02  123.000000  285.000000    0.000000    0.000000    0.000000
                           harm        51        54       153  1.4000E+02  117.000000  286.000000    0.000000    0.000000    0.000000
                           harm        51        54       162  1.6000E+02  120.400000  287.000000    0.000000    0.000000    0.000000
                           harm       153        54       162  1.4000E+02  123.000000  288.000000    0.000000    0.000000    0.000000
                           harm         6       145        55  7.0000E+01  119.800000  289.000000    0.000000    0.000000    0.000000
                           harm         6       145        22  1.0000E+02  121.900000  290.000000    0.000000    0.000000    0.000000
                           harm        22       145        55  7.6000E+01  118.400000  291.000000    0.000000    0.000000    0.000000
                           harm         4       146        56  7.0000E+01  119.800000  292.000000    0.000000    0.000000    0.000000
                           harm         4       146        23  1.0000E+02  121.900000  293.000000    0.000000    0.000000    0.000000
                           harm        23       146        56  7.6000E+01  118.400000  294.000000    0.000000    0.000000    0.000000
                           harm         5       147       136  7.0000E+01  119.800000  295.000000    0.000000    0.000000    0.000000
                           harm         5       147        29  1.0000E+02  121.900000  296.000000    0.000000    0.000000    0.000000
                           harm        29       147       136  7.6000E+01  118.400000  297.000000    0.000000    0.000000    0.000000
                           harm        46       148       141  7.0000E+01  119.800000  298.000000    0.000000    0.000000    0.000000
                           harm        46       148        49  1.0000E+02  121.900000  299.000000    0.000000    0.000000    0.000000
                           harm        49       148       141  7.6000E+01  118.400000  300.000000    0.000000    0.000000    0.000000
                           harm        47       149       142  7.0000E+01  119.800000  301.000000    0.000000    0.000000    0.000000
                           harm        47       149        50  1.0000E+02  121.900000  302.000000    0.000000    0.000000    0.000000
                           harm        50       149       142  7.6000E+01  118.400000  303.000000    0.000000    0.000000    0.000000
                           harm        48       150       139  7.0000E+01  119.800000  304.000000    0.000000    0.000000    0.000000
                           harm        48       150        51  1.0000E+02  121.900000  305.000000    0.000000    0.000000    0.000000
                           harm        51       150       139  7.6000E+01  118.400000  306.000000    0.000000    0.000000    0.000000
                           harm         1       151        52  2.0000E+02  116.400000  307.000000    0.000000    0.000000    0.000000
                           harm         2       152        53  2.0000E+02  116.400000  308.000000    0.000000    0.000000    0.000000
                           harm         3       153        54  2.0000E+02  116.400000  309.000000    0.000000    0.000000    0.000000
                           harm        40       166        43  2.0000E+02  116.400000  310.000000    0.000000    0.000000    0.000000
                           harm        41       167        44  2.0000E+02  116.400000  311.000000    0.000000    0.000000    0.000000
                           harm        42       168        45  2.0000E+02  116.400000  312.000000    0.000000    0.000000    0.000000

 number of dihedral angles             450


 dihedral angle details:

                            key     index     index     index     index     f-const       angle        trig    1-4 elec     1-4 vdw

                           cos        146         4         1       151  0.0000E+00    0.000000    2.000000    0.500000    1.000000
                           cos         34        31         1        57  1.4444E-01    0.000000    3.000000    0.500000    1.000000
                           cos         37        31         1        57  1.4444E-01    0.000000    3.000000    0.500000    1.000000
                           cos         34        31         1       151  1.4444E-01    0.000000    3.000000    0.500000    1.000000
                           cos         37        31         1       151  1.4444E-01    0.000000    3.000000    0.500000    1.000000
                           cos        113        31         1       151  1.4444E-01    0.000000    3.000000    0.500000    1.000000
                           cos        147         5         2       152  0.0000E+00    0.000000    2.000000    0.500000    1.000000
                           cos         35        32         2        58  1.4444E-01    0.000000    3.000000    0.500000    1.000000
                           cos         38        32         2        58  1.4444E-01    0.000000    3.000000    0.500000    1.000000
                           cos         35        32         2       152  1.4444E-01    0.000000    3.000000    0.500000    1.000000
                           cos         38        32         2       152  1.4444E-01    0.000000    3.000000    0.500000    1.000000
                           cos        114        32         2       152  1.4444E-01    0.000000    3.000000    0.500000    1.000000
                           cos        145         6         3       153  0.0000E+00    0.000000    2.000000    0.500000    1.000000
                           cos         36        33         3        59  1.4444E-01    0.000000    3.000000    0.500000    1.000000
                           cos         39        33         3        59  1.4444E-01    0.000000    3.000000    0.500000    1.000000
                           cos         36        33         3       153  1.4444E-01    0.000000    3.000000    0.500000    1.000000
                           cos         39        33         3       153  1.4444E-01    0.000000    3.000000    0.500000    1.000000
                           cos        115        33         3       153  1.4444E-01    0.000000    3.000000    0.500000    1.000000
                           cos         31         1         4       146  0.0000E+00    0.000000    2.000000    0.500000    1.000000
                           cos         57         1         4       146  0.0000E+00    0.000000    2.000000    0.500000    1.000000
                           cos         31         1         4       163  6.7000E-02  180.000000    3.000000    0.500000    1.000000
                           cos         31         1         4       163  0.0000E+00    0.000000    2.000000    0.000000    0.000000
                           cos         57         1         4       163  6.7000E-02  180.000000    3.000000    0.500000    1.000000
                           cos         57         1         4       163  0.0000E+00    0.000000    2.000000    0.000000    0.000000
                           cos        151         1         4       163  0.0000E+00    0.000000    2.000000    0.500000    1.000000
                           cos         56       146         4       163  2.5000E+00  180.000000    2.000000    0.500000    1.000000
                           cos         56       146         4       163  6.5000E-01    0.000000    1.000000    0.000000    0.000000
                           cos         56       146         4       163  2.5000E+00  180.000000    2.000000    0.000000    0.000000
                           cos         23       146         4       163  2.5000E+00  180.000000    2.000000    0.500000    1.000000
                           cos         32         2         5       147  0.0000E+00    0.000000    2.000000    0.500000    1.000000
                           cos         58         2         5       147  0.0000E+00    0.000000    2.000000    0.500000    1.000000
                           cos         32         2         5       164  6.7000E-02  180.000000    3.000000    0.500000    1.000000
                           cos         32         2         5       164  0.0000E+00    0.000000    2.000000    0.000000    0.000000
                           cos         58         2         5       164  6.7000E-02  180.000000    3.000000    0.500000    1.000000
                           cos         58         2         5       164  0.0000E+00    0.000000    2.000000    0.000000    0.000000
                           cos        152         2         5       164  0.0000E+00    0.000000    2.000000    0.500000    1.000000
                           cos        136       147         5       164  2.5000E+00  180.000000    2.000000    0.500000    1.000000
                           cos        136       147         5       164  6.5000E-01    0.000000    1.000000    0.000000    0.000000
                           cos        136       147         5       164  2.5000E+00  180.000000    2.000000    0.000000    0.000000
                           cos         29       147         5       164  2.5000E+00  180.000000    2.000000    0.500000    1.000000
                           cos         33         3         6       145  0.0000E+00    0.000000    2.000000    0.500000    1.000000
                           cos         59         3         6       145  0.0000E+00    0.000000    2.000000    0.500000    1.000000
                           cos         33         3         6       165  6.7000E-02  180.000000    3.000000    0.500000    1.000000
                           cos         33         3         6       165  0.0000E+00    0.000000    2.000000    0.000000    0.000000
                           cos         59         3         6       165  6.7000E-02  180.000000    3.000000    0.500000    1.000000
                           cos         59         3         6       165  0.0000E+00    0.000000    2.000000    0.000000    0.000000
                           cos        153         3         6       165  0.0000E+00    0.000000    2.000000    0.500000    1.000000
                           cos         55       145         6       165  2.5000E+00  180.000000    2.000000    0.500000    1.000000
                           cos         55       145         6       165  6.5000E-01    0.000000    1.000000    0.000000    0.000000
                           cos         55       145         6       165  2.5000E+00  180.000000    2.000000    0.000000    0.000000
                           cos         22       145         6       165  2.5000E+00  180.000000    2.000000    0.500000    1.000000
                           cos         40        22         7        60  1.4444E-01    0.000000    3.000000    0.500000    1.000000
                           cos         41        23         8        61  1.4444E-01    0.000000    3.000000    0.500000    1.000000
                           cos         42        29         9        62  1.4444E-01    0.000000    3.000000    0.500000    1.000000
                           cos         13         7        10        63  1.4444E-01    0.000000    3.000000    0.500000    1.000000
                           cos         22         7        10        63  1.4444E-01    0.000000    3.000000    0.500000    1.000000
                           cos         60         7        10        63  1.4444E-01    0.000000    3.000000    0.500000    1.000000
                           cos         13         7        10        65  1.4444E-01    0.000000    3.000000    0.500000    1.000000
                           cos         22         7        10        65  1.4444E-01    0.000000    3.000000    0.500000    1.000000
                           cos         60         7        10        65  1.4444E-01    0.000000    3.000000    0.500000    1.000000
                           cos         13         7        10        66  1.4444E-01    0.000000    3.000000    0.500000    1.000000
                           cos         22         7        10        66  1.4444E-01    0.000000    3.000000    0.500000    1.000000
                           cos         60         7        10        66  1.4444E-01    0.000000    3.000000    0.500000    1.000000
                           cos         14         8        11        73  1.4444E-01    0.000000    3.000000    0.500000    1.000000
                           cos         23         8        11        73  1.4444E-01    0.000000    3.000000    0.500000    1.000000
                           cos         61         8        11        73  1.4444E-01    0.000000    3.000000    0.500000    1.000000
                           cos         14         8        11        76  1.4444E-01    0.000000    3.000000    0.500000    1.000000
                           cos         23         8        11        76  1.4444E-01    0.000000    3.000000    0.500000    1.000000
                           cos         61         8        11        76  1.4444E-01    0.000000    3.000000    0.500000    1.000000
                           cos         14         8        11        77  1.4444E-01    0.000000    3.000000    0.500000    1.000000
                           cos         23         8        11        77  1.4444E-01    0.000000    3.000000    0.500000    1.000000
                           cos         61         8        11        77  1.4444E-01    0.000000    3.000000    0.500000    1.000000
                           cos         15         9        12        78  1.4444E-01    0.000000    3.000000    0.500000    1.000000
                           cos         29         9        12        78  1.4444E-01    0.000000    3.000000    0.500000    1.000000
                           cos         62         9        12        78  1.4444E-01    0.000000    3.000000    0.500000    1.000000
                           cos         15         9        12        79  1.4444E-01    0.000000    3.000000    0.500000    1.000000
                           cos         29         9        12        79  1.4444E-01    0.000000    3.000000    0.500000    1.000000
                           cos         62         9        12        79  1.4444E-01    0.000000    3.000000    0.500000    1.000000
                           cos         15         9        12        80  1.4444E-01    0.000000    3.000000    0.500000    1.000000
                           cos         29         9        12        80  1.4444E-01    0.000000    3.000000    0.500000    1.000000
                           cos         62         9        12        80  1.4444E-01    0.000000    3.000000    0.500000    1.000000
                           cos         10         7        13        72  1.4444E-01    0.000000    3.000000    0.500000    1.000000
                           cos         22         7        13        72  1.4444E-01    0.000000    3.000000    0.500000    1.000000
                           cos         60         7        13        72  1.4444E-01    0.000000    3.000000    0.500000    1.000000
                           cos         10         7        13        74  1.4444E-01    0.000000    3.000000    0.500000    1.000000
                           cos         22         7        13        74  1.4444E-01    0.000000    3.000000    0.500000    1.000000
                           cos         60         7        13        74  1.4444E-01    0.000000    3.000000    0.500000    1.000000
                           cos         10         7        13        75  1.4444E-01    0.000000    3.000000    0.500000    1.000000
                           cos         22         7        13        75  1.4444E-01    0.000000    3.000000    0.500000    1.000000
                           cos         60         7        13        75  1.4444E-01    0.000000    3.000000    0.500000    1.000000
                           cos         11         8        14        64  1.4444E-01    0.000000    3.000000    0.500000    1.000000
                           cos         23         8        14        64  1.4444E-01    0.000000    3.000000    0.500000    1.000000
                           cos         61         8        14        64  1.4444E-01    0.000000    3.000000    0.500000    1.000000
                           cos         11         8        14        67  1.4444E-01    0.000000    3.000000    0.500000    1.000000
                           cos         23         8        14        67  1.4444E-01    0.000000    3.000000    0.500000    1.000000
                           cos         61         8        14        67  1.4444E-01    0.000000    3.000000    0.500000    1.000000
                           cos         11         8        14        68  1.4444E-01    0.000000    3.000000    0.500000    1.000000
                           cos         23         8        14        68  1.4444E-01    0.000000    3.000000    0.500000    1.000000
                           cos         61         8        14        68  1.4444E-01    0.000000    3.000000    0.500000    1.000000
                           cos         12         9        15        69  1.4444E-01    0.000000    3.000000    0.500000    1.000000
                           cos         29         9        15        69  1.4444E-01    0.000000    3.000000    0.500000    1.000000
                           cos         62         9        15        69  1.4444E-01    0.000000    3.000000    0.500000    1.000000
                           cos         12         9        15        70  1.4444E-01    0.000000    3.000000    0.500000    1.000000
                           cos         29         9        15        70  1.4444E-01    0.000000    3.000000    0.500000    1.000000
                           cos         62         9        15        70  1.4444E-01    0.000000    3.000000    0.500000    1.000000
                           cos         12         9        15        71  1.4444E-01    0.000000    3.000000    0.500000    1.000000
                           cos         29         9        15        71  1.4444E-01    0.000000    3.000000    0.500000    1.000000
                           cos         62         9        15        71  1.4444E-01    0.000000    3.000000    0.500000    1.000000
                           cos         46        43        16        81  1.4444E-01    0.000000    3.000000    0.500000    1.000000
                           cos         46        43        16        83  1.4444E-01    0.000000    3.000000    0.500000    1.000000
                           cos         46        43        16        84  1.4444E-01    0.000000    3.000000    0.500000    1.000000
                           cos         47        44        17        82  1.4444E-01    0.000000    3.000000    0.500000    1.000000
                           cos         47        44        17        85  1.4444E-01    0.000000    3.000000    0.500000    1.000000
                           cos         47        44        17        86  1.4444E-01    0.000000    3.000000    0.500000    1.000000
                           cos         48        45        18        87  1.4444E-01    0.000000    3.000000    0.500000    1.000000
                           cos         48        45        18        88  1.4444E-01    0.000000    3.000000    0.500000    1.000000
                           cos         48        45        18        89  1.4444E-01    0.000000    3.000000    0.500000    1.000000
                           cos         52        49        19        90  1.4444E-01    0.000000    3.000000    0.500000    1.000000
                           cos         53        50        20        91  1.4444E-01    0.000000    3.000000    0.500000    1.000000
                           cos         54        51        21        92  1.4444E-01    0.000000    3.000000    0.500000    1.000000
                           cos         10         7        22        40  1.4444E-01    0.000000    3.000000    0.500000    1.000000
                           cos         13         7        22        40  1.4444E-01    0.000000    3.000000    0.500000    1.000000
                           cos         10         7        22        93  1.4444E-01    0.000000    3.000000    0.500000    1.000000
                           cos         13         7        22        93  1.4444E-01    0.000000    3.000000    0.500000    1.000000
                           cos         60         7        22        93  1.4444E-01    0.000000    3.000000    0.500000    1.000000
                           cos         10         7        22       145  1.4444E-01    0.000000    3.000000    0.500000    1.000000
                           cos         13         7        22       145  1.4444E-01    0.000000    3.000000    0.500000    1.000000
                           cos         60         7        22       145  1.4444E-01    0.000000    3.000000    0.500000    1.000000
                           cos         11         8        23        41  1.4444E-01    0.000000    3.000000    0.500000    1.000000
                           cos         14         8        23        41  1.4444E-01    0.000000    3.000000    0.500000    1.000000
                           cos         11         8        23        94  1.4444E-01    0.000000    3.000000    0.500000    1.000000
                           cos         14         8        23        94  1.4444E-01    0.000000    3.000000    0.500000    1.000000
                           cos         61         8        23        94  1.4444E-01    0.000000    3.000000    0.500000    1.000000
                           cos         11         8        23       146  1.4444E-01    0.000000    3.000000    0.500000    1.000000
                           cos         14         8        23       146  1.4444E-01    0.000000    3.000000    0.500000    1.000000
                           cos         61         8        23       146  1.4444E-01    0.000000    3.000000    0.500000    1.000000
                           cos         27        19        24        95  1.4444E-01    0.000000    3.000000    0.500000    1.000000
                           cos         49        19        24        95  1.4444E-01    0.000000    3.000000    0.500000    1.000000
                           cos         90        19        24        95  1.4444E-01    0.000000    3.000000    0.500000    1.000000
                           cos         27        19        24        97  1.4444E-01    0.000000    3.000000    0.500000    1.000000
                           cos         49        19        24        97  1.4444E-01    0.000000    3.000000    0.500000    1.000000
                           cos         90        19        24        97  1.4444E-01    0.000000    3.000000    0.500000    1.000000
                           cos         27        19        24        98  1.4444E-01    0.000000    3.000000    0.500000    1.000000
                           cos         49        19        24        98  1.4444E-01    0.000000    3.000000    0.500000    1.000000
                           cos         90        19        24        98  1.4444E-01    0.000000    3.000000    0.500000    1.000000
                           cos         28        20        25        96  1.4444E-01    0.000000    3.000000    0.500000    1.000000
                           cos         50        20        25        96  1.4444E-01    0.000000    3.000000    0.500000    1.000000
                           cos         91        20        25        96  1.4444E-01    0.000000    3.000000    0.500000    1.000000
                           cos         28        20        25        99  1.4444E-01    0.000000    3.000000    0.500000    1.000000
                           cos         50        20        25        99  1.4444E-01    0.000000    3.000000    0.500000    1.000000
                           cos         91        20        25        99  1.4444E-01    0.000000    3.000000    0.500000    1.000000
                           cos         28        20        25       100  1.4444E-01    0.000000    3.000000    0.500000    1.000000
                           cos         50        20        25       100  1.4444E-01    0.000000    3.000000    0.500000    1.000000
                           cos         91        20        25       100  1.4444E-01    0.000000    3.000000    0.500000    1.000000
                           cos         30        21        26       101  1.4444E-01    0.000000    3.000000    0.500000    1.000000
                           cos         51        21        26       101  1.4444E-01    0.000000    3.000000    0.500000    1.000000
                           cos         92        21        26       101  1.4444E-01    0.000000    3.000000    0.500000    1.000000
                           cos         30        21        26       102  1.4444E-01    0.000000    3.000000    0.500000    1.000000
                           cos         51        21        26       102  1.4444E-01    0.000000    3.000000    0.500000    1.000000
                           cos         92        21        26       102  1.4444E-01    0.000000    3.000000    0.500000    1.000000
                           cos         30        21        26       103  1.4444E-01    0.000000    3.000000    0.500000    1.000000
                           cos         51        21        26       103  1.4444E-01    0.000000    3.000000    0.500000    1.000000
                           cos         92        21        26       103  1.4444E-01    0.000000    3.000000    0.500000    1.000000
                           cos         24        19        27       104  1.4444E-01    0.000000    3.000000    0.500000    1.000000
                           cos         49        19        27       104  1.4444E-01    0.000000    3.000000    0.500000    1.000000
                           cos         90        19        27       104  1.4444E-01    0.000000    3.000000    0.500000    1.000000
                           cos         24        19        27       106  1.4444E-01    0.000000    3.000000    0.500000    1.000000
                           cos         49        19        27       106  1.4444E-01    0.000000    3.000000    0.500000    1.000000
                           cos         90        19        27       106  1.4444E-01    0.000000    3.000000    0.500000    1.000000
                           cos         24        19        27       107  1.4444E-01    0.000000    3.000000    0.500000    1.000000
                           cos         49        19        27       107  1.4444E-01    0.000000    3.000000    0.500000    1.000000
[...]
 averages -9.0749E+03  3.0732E+02  1.8732E+03 -5.1983E+04  1.4625E+04  0.0000E+00  0.0000E+00  1.8490E+03  0.0000E+00
           3.9370E+04  0.0000E+00  0.0000E+00  0.0000E+00  9.0000E+01  9.0000E+01  9.0000E+01  0.0000E+00  3.8676E-01
 ------------------------------------------------------------------------------------------------------------------------
      485 -9.2966E+03  3.0568E+02 -1.1634E+04  1.8724E+03 -1.3585E+04  0.0000E+00  6.2940E+01  1.5650E+01  0.0000E+00
 970.000f -9.4217E+03  2.9676E+02  2.8498E+03 -5.0391E+04  1.4424E+04  0.0000E+00  0.0000E+00  1.8762E+03  0.0000E+00
  44.090s  3.9370E+04  0.0000E+00  0.0000E+00  0.0000E+00  9.0000E+01  9.0000E+01  9.0000E+01  0.0000E+00 -2.0537E-01

  rolling -9.2966E+03  3.1350E+02 -1.1687E+04  1.9813E+03 -1.3762E+04  0.0000E+00  7.5195E+01  1.8931E+01  0.0000E+00
 averages -9.0785E+03  3.0728E+02  1.8827E+03 -5.1964E+04  1.4623E+04  0.0000E+00  0.0000E+00  1.8465E+03  0.0000E+00
           3.9370E+04  0.0000E+00  0.0000E+00  0.0000E+00  9.0000E+01  9.0000E+01  9.0000E+01  0.0000E+00  3.8077E-01
 ------------------------------------------------------------------------------------------------------------------------
      486 -9.2972E+03  3.0762E+02 -1.1649E+04  1.8736E+03 -1.3599E+04  0.0000E+00  6.0783E+01  1.5476E+01  0.0000E+00
 972.000f -9.4215E+03  3.0082E+02  2.8472E+03 -5.0402E+04  1.4442E+04  0.0000E+00  0.0000E+00  1.8346E+03  0.0000E+00
  44.166s  3.9370E+04  0.0000E+00  0.0000E+00  0.0000E+00  9.0000E+01  9.0000E+01  9.0000E+01  0.0000E+00 -2.0387E-01

  rolling -9.2967E+03  3.1347E+02 -1.1686E+04  1.9800E+03 -1.3760E+04  0.0000E+00  7.4958E+01  1.8852E+01  0.0000E+00
 averages -9.0822E+03  3.0731E+02  1.8928E+03 -5.1945E+04  1.4621E+04  0.0000E+00  0.0000E+00  1.8438E+03  0.0000E+00
           3.9370E+04  0.0000E+00  0.0000E+00  0.0000E+00  9.0000E+01  9.0000E+01  9.0000E+01  0.0000E+00  3.7447E-01
 ------------------------------------------------------------------------------------------------------------------------
      487 -9.2972E+03  3.0866E+02 -1.1657E+04  1.8738E+03 -1.3613E+04  0.0000E+00  6.5815E+01  1.6002E+01  0.0000E+00
 974.000f -9.4246E+03  3.0476E+02  2.8430E+03 -5.0399E+04  1.4457E+04  0.0000E+00  0.0000E+00  1.7847E+03  0.0000E+00
  44.299s  3.9370E+04  0.0000E+00  0.0000E+00  0.0000E+00  9.0000E+01  9.0000E+01  9.0000E+01  0.0000E+00 -2.0897E-01

  rolling -9.2967E+03  3.1344E+02 -1.1686E+04  1.9788E+03 -1.3759E+04  0.0000E+00  7.4775E+01  1.8765E+01  0.0000E+00
 averages -9.0862E+03  3.0737E+02  1.9036E+03 -5.1927E+04  1.4619E+04  0.0000E+00  0.0000E+00  1.8412E+03  0.0000E+00
           3.9370E+04  0.0000E+00  0.0000E+00  0.0000E+00  9.0000E+01  9.0000E+01  9.0000E+01  0.0000E+00  3.6769E-01
 ------------------------------------------------------------------------------------------------------------------------
      488 -9.2969E+03  3.0868E+02 -1.1657E+04  1.8732E+03 -1.3623E+04  0.0000E+00  7.5243E+01  1.6977E+01  0.0000E+00
 976.000f -9.4261E+03  3.0773E+02  2.8267E+03 -5.0388E+04  1.4467E+04  0.0000E+00  0.0000E+00  1.7336E+03  0.0000E+00
  44.375s  3.9370E+04  0.0000E+00  0.0000E+00  0.0000E+00  9.0000E+01  9.0000E+01  9.0000E+01  0.0000E+00 -2.1181E-01

  rolling -9.2967E+03  3.1340E+02 -1.1686E+04  1.9776E+03 -1.3757E+04  0.0000E+00  7.4723E+01  1.8681E+01  0.0000E+00
 averages -9.0903E+03  3.0746E+02  1.9142E+03 -5.1908E+04  1.4618E+04  0.0000E+00  0.0000E+00  1.8383E+03  0.0000E+00
           3.9370E+04  0.0000E+00  0.0000E+00  0.0000E+00  9.0000E+01  9.0000E+01  9.0000E+01  0.0000E+00  3.6083E-01
 ------------------------------------------------------------------------------------------------------------------------
 ------------------------------------------------------------------------------------------------------------------------

     step     eng_tot    temp_tot     eng_cfg     eng_vdw     eng_cou     eng_bnd     eng_ang     eng_dih     eng_tet
 time          eng_pv    temp_rot     vir_cfg     vir_vdw     vir_cou     vir_bnd     vir_ang     vir_con     vir_tet
 cpu time      volume    temp_shl     eng_shl     vir_shl       alpha        beta       gamma     vir_pmf       press

 ------------------------------------------------------------------------------------------------------------------------
      489 -9.2966E+03  3.0825E+02 -1.1654E+04  1.8724E+03 -1.3627E+04  0.0000E+00  8.3027E+01  1.8004E+01  0.0000E+00
 978.000f -9.4256E+03  3.0926E+02  2.8078E+03 -5.0374E+04  1.4471E+04  0.0000E+00  0.0000E+00  1.6994E+03  0.0000E+00
  44.450s  3.9370E+04  0.0000E+00  0.0000E+00  0.0000E+00  9.0000E+01  9.0000E+01  9.0000E+01  0.0000E+00 -2.1117E-01

  rolling -9.2967E+03  3.1335E+02 -1.1686E+04  1.9763E+03 -1.3756E+04  0.0000E+00  7.4783E+01  1.8608E+01  0.0000E+00
 averages -9.0942E+03  3.0754E+02  1.9242E+03 -5.1890E+04  1.4616E+04  0.0000E+00  0.0000E+00  1.8350E+03  0.0000E+00
           3.9370E+04  0.0000E+00  0.0000E+00  0.0000E+00  9.0000E+01  9.0000E+01  9.0000E+01  0.0000E+00  3.5420E-01
 ------------------------------------------------------------------------------------------------------------------------
      490 -9.2966E+03  3.0788E+02 -1.1651E+04  1.8717E+03 -1.3626E+04  0.0000E+00  8.4910E+01  1.8712E+01  0.0000E+00
 980.000f -9.4264E+03  3.0935E+02  2.8035E+03 -5.0361E+04  1.4468E+04  0.0000E+00  0.0000E+00  1.7032E+03  0.0000E+00
  44.525s  3.9370E+04  0.0000E+00  0.0000E+00  0.0000E+00  9.0000E+01  9.0000E+01  9.0000E+01  0.0000E+00 -2.1229E-01

  rolling -9.2967E+03  3.1327E+02 -1.1685E+04  1.9751E+03 -1.3754E+04  0.0000E+00  7.4880E+01  1.8551E+01  0.0000E+00
 averages -9.0981E+03  3.0761E+02  1.9338E+03 -5.1871E+04  1.4614E+04  0.0000E+00  0.0000E+00  1.8317E+03  0.0000E+00
           3.9370E+04  0.0000E+00  0.0000E+00  0.0000E+00  9.0000E+01  9.0000E+01  9.0000E+01  0.0000E+00  3.4767E-01
 ------------------------------------------------------------------------------------------------------------------------
      491 -9.2969E+03  3.0756E+02 -1.1649E+04  1.8716E+03 -1.3622E+04  0.0000E+00  8.2210E+01  1.8920E+01  0.0000E+00
 982.000f -9.4299E+03  3.0834E+02  2.8154E+03 -5.0361E+04  1.4461E+04  0.0000E+00  0.0000E+00  1.7482E+03  0.0000E+00
  44.599s  3.9370E+04  0.0000E+00  0.0000E+00  0.0000E+00  9.0000E+01  9.0000E+01  9.0000E+01  0.0000E+00 -2.1774E-01

  rolling -9.2967E+03  3.1318E+02 -1.1685E+04  1.9738E+03 -1.3752E+04  0.0000E+00  7.4967E+01  1.8510E+01  0.0000E+00
 averages -9.1021E+03  3.0765E+02  1.9437E+03 -5.1852E+04  1.4612E+04  0.0000E+00  0.0000E+00  1.8290E+03  0.0000E+00
           3.9370E+04  0.0000E+00  0.0000E+00  0.0000E+00  9.0000E+01  9.0000E+01  9.0000E+01  0.0000E+00  3.4092E-01
 ------------------------------------------------------------------------------------------------------------------------
      492 -9.2969E+03  3.0687E+02 -1.1644E+04  1.8732E+03 -1.3616E+04  0.0000E+00  7.9799E+01  1.8729E+01  0.0000E+00
 984.000f -9.4286E+03  3.0680E+02  2.8117E+03 -5.0386E+04  1.4451E+04  0.0000E+00  0.0000E+00  1.8101E+03  0.0000E+00
  44.674s  3.9370E+04  0.0000E+00  0.0000E+00  0.0000E+00  9.0000E+01  9.0000E+01  9.0000E+01  0.0000E+00 -2.1528E-01

  rolling -9.2967E+03  3.1307E+02 -1.1684E+04  1.9726E+03 -1.3750E+04  0.0000E+00  7.5051E+01  1.8480E+01  0.0000E+00
 averages -9.1062E+03  3.0767E+02  1.9540E+03 -5.1833E+04  1.4610E+04  0.0000E+00  0.0000E+00  1.8270E+03  0.0000E+00
           3.9370E+04  0.0000E+00  0.0000E+00  0.0000E+00  9.0000E+01  9.0000E+01  9.0000E+01  0.0000E+00  3.3394E-01
 ------------------------------------------------------------------------------------------------------------------------
      493 -9.2965E+03  3.0587E+02 -1.1636E+04  1.8761E+03 -1.3610E+04  0.0000E+00  7.9773E+01  1.8445E+01  0.0000E+00
 986.000f -9.4194E+03  3.0535E+02  2.7805E+03 -5.0430E+04  1.4445E+04  0.0000E+00  0.0000E+00  1.8560E+03  0.0000E+00
  44.814s  3.9370E+04  0.0000E+00  0.0000E+00  0.0000E+00  9.0000E+01  9.0000E+01  9.0000E+01  0.0000E+00 -1.9978E-01

  rolling -9.2967E+03  3.1296E+02 -1.1683E+04  1.9713E+03 -1.3748E+04  0.0000E+00  7.5140E+01  1.8459E+01  0.0000E+00
 averages -9.1103E+03  3.0769E+02  1.9640E+03 -5.1815E+04  1.4608E+04  0.0000E+00  0.0000E+00  1.8253E+03  0.0000E+00
           3.9370E+04  0.0000E+00  0.0000E+00  0.0000E+00  9.0000E+01  9.0000E+01  9.0000E+01  0.0000E+00  3.2706E-01
 ------------------------------------------------------------------------------------------------------------------------
      494 -9.2962E+03  3.0529E+02 -1.1631E+04  1.8788E+03 -1.3608E+04  0.0000E+00  7.9348E+01  1.8327E+01  0.0000E+00
 988.000f -9.4066E+03  3.0447E+02  2.7398E+03 -5.0475E+04  1.4443E+04  0.0000E+00  0.0000E+00  1.8765E+03  0.0000E+00
  44.889s  3.9370E+04  0.0000E+00  0.0000E+00  0.0000E+00  9.0000E+01  9.0000E+01  9.0000E+01  0.0000E+00 -1.7761E-01

  rolling -9.2966E+03  3.1285E+02 -1.1683E+04  1.9701E+03 -1.3746E+04  0.0000E+00  7.5187E+01  1.8443E+01  0.0000E+00
 averages -9.1141E+03  3.0771E+02  1.9732E+03 -5.1796E+04  1.4605E+04  0.0000E+00  0.0000E+00  1.8231E+03  0.0000E+00
           3.9370E+04  0.0000E+00  0.0000E+00  0.0000E+00  9.0000E+01  9.0000E+01  9.0000E+01  0.0000E+00  3.2061E-01
 ------------------------------------------------------------------------------------------------------------------------
      495 -9.2962E+03  3.0570E+02 -1.1635E+04  1.8809E+03 -1.3610E+04  0.0000E+00  7.5575E+01  1.8409E+01  0.0000E+00
 990.000f -9.3970E+03  3.0451E+02  2.7167E+03 -5.0511E+04  1.4444E+04  0.0000E+00  0.0000E+00  1.8886E+03  0.0000E+00
  44.970s  3.9370E+04  0.0000E+00  0.0000E+00  0.0000E+00  9.0000E+01  9.0000E+01  9.0000E+01  0.0000E+00 -1.6065E-01

  rolling -9.2966E+03  3.1276E+02 -1.1682E+04  1.9689E+03 -1.3745E+04  0.0000E+00  7.5135E+01  1.8429E+01  0.0000E+00
 averages -9.1177E+03  3.0776E+02  1.9817E+03 -5.1778E+04  1.4603E+04  0.0000E+00  0.0000E+00  1.8201E+03  0.0000E+00
           3.9370E+04  0.0000E+00  0.0000E+00  0.0000E+00  9.0000E+01  9.0000E+01  9.0000E+01  0.0000E+00  3.1464E-01
 ------------------------------------------------------------------------------------------------------------------------
      496 -9.2964E+03  3.0711E+02 -1.1646E+04  1.8819E+03 -1.3616E+04  0.0000E+00  6.9432E+01  1.8610E+01  0.0000E+00
 992.000f -9.4046E+03  3.0555E+02  2.7522E+03 -5.0533E+04  1.4453E+04  0.0000E+00  0.0000E+00  1.9199E+03  0.0000E+00
  45.046s  3.9370E+04  0.0000E+00  0.0000E+00  0.0000E+00  9.0000E+01  9.0000E+01  9.0000E+01  0.0000E+00 -1.7319E-01

  rolling -9.2966E+03  3.1269E+02 -1.1682E+04  1.9676E+03 -1.3743E+04  0.0000E+00  7.4981E+01  1.8413E+01  0.0000E+00
 averages -9.1211E+03  3.0784E+02  1.9901E+03 -5.1759E+04  1.4601E+04  0.0000E+00  0.0000E+00  1.8163E+03  0.0000E+00
           3.9370E+04  0.0000E+00  0.0000E+00  0.0000E+00  9.0000E+01  9.0000E+01  9.0000E+01  0.0000E+00  3.0887E-01
 ------------------------------------------------------------------------------------------------------------------------
 ------------------------------------------------------------------------------------------------------------------------

     step     eng_tot    temp_tot     eng_cfg     eng_vdw     eng_cou     eng_bnd     eng_ang     eng_dih     eng_tet
 time          eng_pv    temp_rot     vir_cfg     vir_vdw     vir_cou     vir_bnd     vir_ang     vir_con     vir_tet
 cpu time      volume    temp_shl     eng_shl     vir_shl       alpha        beta       gamma     vir_pmf       press

 ------------------------------------------------------------------------------------------------------------------------
      497 -9.2970E+03  3.0889E+02 -1.1660E+04  1.8813E+03 -1.3626E+04  0.0000E+00  6.5195E+01  1.8913E+01  0.0000E+00
 994.000f -9.4366E+03  3.0736E+02  2.8602E+03 -5.0533E+04  1.4468E+04  0.0000E+00  0.0000E+00  1.9835E+03  0.0000E+00
  45.124s  3.9370E+04  0.0000E+00  0.0000E+00  0.0000E+00  9.0000E+01  9.0000E+01  9.0000E+01  0.0000E+00 -2.2783E-01

  rolling -9.2967E+03  3.1265E+02 -1.1682E+04  1.9664E+03 -1.3741E+04  0.0000E+00  7.4794E+01  1.8391E+01  0.0000E+00
 averages -9.1247E+03  3.0796E+02  1.9992E+03 -5.1741E+04  1.4600E+04  0.0000E+00  0.0000E+00  1.8125E+03  0.0000E+00
           3.9370E+04  0.0000E+00  0.0000E+00  0.0000E+00  9.0000E+01  9.0000E+01  9.0000E+01  0.0000E+00  3.0278E-01
 ------------------------------------------------------------------------------------------------------------------------
      498 -9.2971E+03  3.1012E+02 -1.1670E+04  1.8807E+03 -1.3637E+04  0.0000E+00  6.6832E+01  1.9378E+01  0.0000E+00
 996.000f -9.4767E+03  3.0945E+02  2.9831E+03 -5.0530E+04  1.4483E+04  0.0000E+00  0.0000E+00  2.0532E+03  0.0000E+00
  45.200s  3.9370E+04  0.0000E+00  0.0000E+00  0.0000E+00  9.0000E+01  9.0000E+01  9.0000E+01  0.0000E+00 -2.9714E-01

  rolling -9.2967E+03  3.1262E+02 -1.1682E+04  1.9651E+03 -1.3740E+04  0.0000E+00  7.4660E+01  1.8360E+01  0.0000E+00
 averages -9.1288E+03  3.0810E+02  2.0095E+03 -5.1721E+04  1.4598E+04  0.0000E+00  0.0000E+00  1.8091E+03  0.0000E+00
           3.9370E+04  0.0000E+00  0.0000E+00  0.0000E+00  9.0000E+01  9.0000E+01  9.0000E+01  0.0000E+00  2.9592E-01
 ------------------------------------------------------------------------------------------------------------------------
      499 -9.2967E+03  3.1052E+02 -1.1673E+04  1.8806E+03 -1.3647E+04  0.0000E+00  7.3401E+01  2.0034E+01  0.0000E+00
 998.000f -9.5084E+03  3.1121E+02  3.0723E+03 -5.0533E+04  1.4496E+04  0.0000E+00  0.0000E+00  2.0996E+03  0.0000E+00
  45.277s  3.9370E+04  0.0000E+00  0.0000E+00  0.0000E+00  9.0000E+01  9.0000E+01  9.0000E+01  0.0000E+00 -3.5287E-01

  rolling -9.2967E+03  3.1259E+02 -1.1681E+04  1.9637E+03 -1.3738E+04  0.0000E+00  7.4619E+01  1.8324E+01  0.0000E+00
 averages -9.1335E+03  3.0824E+02  2.0217E+03 -5.1701E+04  1.4596E+04  0.0000E+00  0.0000E+00  1.8067E+03  0.0000E+00
           3.9370E+04  0.0000E+00  0.0000E+00  0.0000E+00  9.0000E+01  9.0000E+01  9.0000E+01  0.0000E+00  2.8795E-01
 ------------------------------------------------------------------------------------------------------------------------
      500 -9.2965E+03  3.1072E+02 -1.1674E+04  1.8795E+03 -1.3653E+04  0.0000E+00  7.8731E+01  2.0797E+01  0.0000E+00
   1.000p -9.5349E+03  3.1206E+02  3.1491E+03 -5.0522E+04  1.4505E+04  0.0000E+00  0.0000E+00  2.1318E+03  0.0000E+00
  45.413s  3.9370E+04  0.0000E+00  0.0000E+00  0.0000E+00  9.0000E+01  9.0000E+01  9.0000E+01  0.0000E+00 -3.9922E-01

  rolling -9.2967E+03  3.1256E+02 -1.1681E+04  1.9622E+03 -1.3736E+04  0.0000E+00  7.4636E+01  1.8292E+01  0.0000E+00
 averages -9.1391E+03  3.0837E+02  2.0366E+03 -5.1680E+04  1.4595E+04  0.0000E+00  0.0000E+00  1.8062E+03  0.0000E+00
           3.9370E+04  0.0000E+00  0.0000E+00  0.0000E+00  9.0000E+01  9.0000E+01  9.0000E+01  0.0000E+00  2.7845E-01
 ------------------------------------------------------------------------------------------------------------------------


 run terminating. elapsed cpu time =   4.54130E+01, job time =   1.667h, close time =  100.00s



 run terminated after     500 steps. final averages calculated over     400 steps.


 ------------------------------------------------------------------------------------------------------------------------

     step     eng_tot    temp_tot     eng_cfg     eng_vdw     eng_cou     eng_bnd     eng_ang     eng_dih     eng_tet
 time          eng_pv    temp_rot     vir_cfg     vir_vdw     vir_cou     vir_bnd     vir_ang     vir_con     vir_tet
 cpu time      volume    temp_shl     eng_shl     vir_shl       alpha        beta       gamma     vir_pmf       press

 ------------------------------------------------------------------------------------------------------------------------
      500 -9.2966E+03  3.1138E+02 -1.1668E+04  1.9640E+03 -1.3728E+04  0.0000E+00  7.5576E+01  1.9890E+01  0.0000E+00
   1.000p -9.1538E+03  3.0812E+02  2.0777E+03 -5.1693E+04  1.4578E+04  0.0000E+00  0.0000E+00  1.8818E+03  0.0000E+00
  45.509s  3.9370E+04  0.0000E+00  0.0000E+00  0.0000E+00  9.0000E+01  9.0000E+01  9.0000E+01  0.0000E+00  2.4525E-01

  r.m.s.   3.4729E-01  4.2915E+00  3.1943E+01  5.8556E+01  7.7084E+01  0.0000E+00  5.2308E+00  3.0119E+00  0.0000E+00
 fluctn.   2.0195E+02  5.9165E+00  5.7017E+02  7.8974E+02  9.7678E+01  0.0000E+00  0.0000E+00  2.7229E+02  0.0000E+00
           1.5060E-11  0.0000E+00  0.0000E+00  0.0000E+00  2.6430E-14  2.6430E-14  2.6430E-14  0.0000E+00  3.4915E-01
 ------------------------------------------------------------------------------------------------------------------------


            Approximate 3D Diffusion  coefficients (10^-9 m^2 / s)

            atom        D 
            CT         1.1656E+00
            C          6.5635E-01
            H          6.5765E-01
            HC         1.4967E+00
            N          5.2774E-01
            OS         6.8650E-01
            Oe         8.8943E-01
            O          8.4470E-01
            OW         5.0364E+00
            HW         5.6851E+00


                Average pressure tensor                                       r.m.s. fluctuations 

           2.4365E-01 -1.2222E-01  3.9570E-02                          4.4079E-01  2.8826E-01  3.1896E-01
          -1.2222E-01  3.3287E-01 -2.5904E-02                          2.8826E-01  5.4430E-01  3.3081E-01
           3.9570E-02 -2.5904E-02  1.5923E-01                          3.1896E-01  3.3081E-01  6.9168E-01

            trace/3.   2.4525E-01


 sample of final configuration

      i       x(i)        y(i)        z(i)       vx(i)       vy(i)       vz(i)       fx(i)       fy(i)       fz(i)


      1 -5.2510E+00 -5.8981E+00 -5.7034E+00  1.0745E-01 -3.2967E+00  2.3465E-01  4.2583E+03  2.9469E+03 -3.8343E+03
    193 -1.0103E+01 -1.1486E+01  1.0246E+01 -5.5744E+00  3.6251E+00 -9.3461E+00 -1.0804E+04  1.8181E+03  1.0254E+04
    385  7.1209E+00  1.5252E+00  2.0500E+01 -4.1469E+00 -4.0432E+00  8.9272E-01 -3.9876E+03  3.6682E+03  3.6882E+03
    577  9.7943E+00 -7.2407E-02  9.3945E+00  1.2786E+00  1.1121E+00 -7.5741E-01  1.1715E+04 -2.7159E+03 -1.3643E+03
    769 -1.4641E+01  9.1158E-01  1.4377E+01 -3.0556E+00 -3.3506E+00  4.9101E-01 -2.8267E+03  1.2140E+04 -1.9282E+03
    961  2.0852E+00  8.4923E+00  2.1513E+00 -3.7931E-01  5.9939E-01  1.8142E+00  1.1253E+04  3.3753E+03  8.8639E+03
   1153 -2.2505E+00 -2.1078E+01 -8.4379E+00 -1.4740E+00 -4.8945E+00 -6.3238E+00 -1.5998E+03 -2.5660E+03  7.5375E+03
   1345 -6.9696E+00  1.3143E+01  9.2596E+00 -3.0628E+00  2.6272E+00 -6.5255E+00  6.7174E+03 -2.7300E+03  9.6218E+03
   1537  1.1684E+01  4.6022E+00  9.6422E+00 -2.0799E+00 -4.3997E+00  3.0173E+00 -5.0994E+03  1.1573E+04 -6.7999E+03
   1729  1.3953E+01 -1.4800E+01 -6.1319E-01  1.0736E+00  1.7700E+00 -8.9571E-01  2.8469E+03 -1.0495E+04 -7.0264E+03
   1921  1.0272E+01  3.4071E+00  1.3771E+01 -3.2909E+00 -5.3557E+00 -9.7032E-01 -6.5776E+03 -7.0686E+03 -8.7356E+02
   2113  8.0971E+00  2.6298E+00  1.0961E+01 -4.8401E+00  1.8453E+00 -1.6603E-01  1.7707E+04  2.7732E+03 -2.5209E+02
   2305 -3.4689E+00 -1.9355E+01  2.0863E+00  5.3803E+00 -7.2294E+00 -1.5132E-02 -8.2563E+03 -1.1107E+04  1.8468E+03
   2497 -1.6099E+01 -1.5983E+00  4.0877E+00  1.7130E+00  9.7962E-01  6.4638E+00  8.5470E+03 -8.2874E+03  3.8317E+03
   2689 -2.6722E+00  6.1704E+00  9.3025E+00 -2.0326E+00  3.9321E-02 -3.4568E+00  1.0010E+04 -5.4527E+03  1.1082E+04
   2881 -8.3229E-01 -1.5754E+01  3.4460E+00 -6.9242E+00 -1.5585E+00  5.3967E+00  8.5600E+03 -2.2664E+03 -6.4870E+02
   3073 -4.3382E+00  1.9408E+01 -4.6202E+00  1.5637E+00 -6.3738E+00  1.9380E+00 -5.0503E+03  1.4814E+04 -5.5490E+03
   3265 -7.6340E+00 -1.0935E+01  3.5569E+00  5.4376E-01 -4.7329E+00  3.6333E+00 -1.7405E+03 -1.4787E+04  1.3587E+04
   3457  1.4943E+01 -5.8969E+00 -1.0833E+01 -1.3206E+00 -2.8158E+00 -1.2386E-01 -8.5504E+03  1.1870E+04  6.2573E+02
   3649  3.8669E+00 -1.5450E+01 -5.8779E+00  2.4630E+00  2.7750E+00  2.6184E+00  1.1415E+04 -1.0455E+03  1.7704E+03

 time elapsed since job start =          45.509 seconds

