
                    DL_POLY Classic 1.2

                              Running on    8 nodes


 ************************************************************************************************************************
 ************************************************************************************************************************
 ************************************************************************************************************************
 ***************     TEST5: Adiabatic Shell Model MgCl2                                                   ***************
 ************************************************************************************************************************
 ************************************************************************************************************************
 ************************************************************************************************************************


 SIMULATION CONTROL PARAMETERS


 velocity verlet integration selected

 simulation temperature           1.2000E+03

 simulation pressure (katm)       0.0000E+00

 Berendsen isotropic N-P-T
 thermostat relaxation time       1.0000E-01
 barostat relaxation time         2.0000E+00

 selected number of timesteps          500

 equilibration period                  100

 multiple timestep interval              8

 scaled restart requested

 temperature scaling on
 temperature scaling interval           10

 data printing interval                 10

 data stacking interval                100

 statistics file interval                5


 radial distribution functions on 
 g(r) collection interval                1
 g(r) bin width                   5.0000E-02

 simulation timestep              5.0000E-04

 primary neighbour cut off        8.3000E+00

 real space cut off               1.2000E+01

 border width of Verlet shell     1.2000E+00

 real space cut off (vdw)         7.0000E+00

 Ewald sum  precision             1.0000E-05

 Electrostatics : Ewald sum  

 Ewald convergence parameter      2.3464E-01
 Ewald kmax1 kmax2 kmax3         6    6    6

 tolerance for SHAKE              1.0000E-05

 tolerance for Quaternions        1.0000E-05

 g(r) printing option on      

 user allocated job time (h)      1.0000

 job closure time        (s)     200.000


SYSTEM SPECIFICATION

 energy units=electron volts 


 number of molecular types               1

 molecular species type                  1


 name of species:             MgCl2                                   

 number of molecules                   256

 number of atoms/sites                   5


 atomic characteristics:

                      site     name          mass        charge    repeat    freeze

                         1     Mg          24.30500     2.00000         1         0
                         2     Cl          31.90770     0.98000         2         0
                         4     Cl-shl       3.54530    -1.98000         2         0

 number of core-shell units              2


 core-shell details:

                          index     index      parameter
                              2         4        19.5980         0.0000
                              3         5        19.5980         0.0000


 number of specified pair potentials         6


                atom 1  atom 2      key                              parameters


                Mg      Mg        buck     1.90608E+01  3.63000E-01  1.52670E+01
                Cl      Cl        buck     1.90608E+03  3.63000E-01  1.52267E+02
                Mg      Cl        buck     4.91454E+01  2.57000E-01  0.00000E+00
                Mg      Cl-shl    buck     4.91454E+03  2.57000E-01  3.20000E+01
                Cl-shl  Cl-shl    buck     1.90608E+01  3.63000E-01  1.52267E+01
                Cl      Cl-shl    buck     1.90608E+01  3.63000E-01  3.20000E+01


adiabatic shell model in operation

 configuration file name: 

          DL_POLY TEST CASE 5: Adiabatic Shell Model MgCl2 Structure                      


 selected image convention               1


 simulation cell vectors


                        26.344191    0.000000    0.000000
                         0.000000   26.344191    0.000000
                         0.000000    0.000000   26.344191


 system volume            18283.2996576    


 total degrees of freedom                      2301.
 rotational degrees of freedom                    0.
 shell pseudo degrees of freedom               1536.


 sample of starting configuration

      i       x(i)        y(i)        z(i)       vx(i)       vy(i)       vz(i)       fx(i)       fy(i)       fz(i)


      1 -1.1263E+01 -1.2284E+01 -1.2351E+01  6.0912E+00  6.7043E+00  4.0902E+00 -7.4021E+03  6.7022E+03 -3.8339E+03
     65  9.8539E+00 -1.1916E+01 -6.7825E+00  1.0478E+01 -7.6902E+00 -7.9251E+00  4.9804E+03  2.6798E+03  9.0182E+02
    129  4.0961E+00 -7.7675E+00  6.6730E+00  4.0163E+00  7.9652E-01  3.9847E+00 -6.5221E+03  4.7503E+03  3.6094E+03
    193 -1.2610E+01  4.9412E+00 -8.1750E+00 -8.9558E+00 -3.1584E+00  3.7997E+00  6.2678E+03  1.1107E+04  4.7265E+03
    257  1.2342E+00  9.1069E+00  1.2331E+01  8.1194E+00 -1.5131E+01  2.4189E-02  4.9667E+03  5.8039E+03  6.3560E+03
    321 -5.9471E+00  1.2697E+01  1.4242E+00  8.2556E+00  5.0991E+00  1.3176E+00  4.2444E+03 -5.4857E+03 -2.9880E+03
    385 -3.0181E+00  3.2416E+00  8.9229E-01 -4.8124E+00  3.7465E+00 -7.3389E+00 -5.3363E+03  3.1128E+03 -1.2438E+03
    449  1.0621E+01  8.4126E+00 -7.3493E+00 -6.5967E+00 -6.0361E+00 -4.5004E+00  7.9309E+02  3.6246E+02  1.0316E+03
    513 -1.3045E+01 -3.1659E+00 -1.2158E+01  3.5679E+00  6.8243E+00  3.9263E+00  1.5640E+04 -4.4063E+03  2.3099E+03
    577  8.6217E+00  2.2038E+00 -5.1418E+00  3.5299E+00 -5.6877E+00  8.3177E+00 -2.1111E+04 -2.5778E+03 -1.5136E+04
    641  7.8829E-01  1.3004E+00 -3.8584E+00  7.0522E+00  1.6745E+00  1.2746E+01 -2.0626E+03 -1.2115E+04 -6.8330E+03
    705 -1.0303E+01  6.6798E+00  1.1103E+01 -2.2042E+00 -9.7266E+00 -7.4432E+00  7.2565E+02  7.4963E+03  2.4409E+03
    769 -2.3916E+00 -1.1808E+01  9.5291E+00  1.3627E+00 -6.8229E+00 -1.7789E+00  1.0020E+00  2.4832E+03 -1.7306E+03
    833 -1.1548E+01 -4.4992E+00  5.3521E+00  5.0472E+00 -2.8054E+00 -2.5424E+00  5.9815E+03  8.7636E+02  7.2586E+02
    897  1.0823E+01 -7.9532E+00  7.0469E+00 -6.2271E-01 -5.1100E+00  5.0694E+00 -4.2531E+03 -1.1470E+04 -2.0930E+02
    961  8.2070E+00 -3.5473E+00  9.2043E+00 -3.3066E-01  8.1834E-01 -3.3906E+00  5.0310E+03 -3.7214E+03 -2.6384E+04
   1025  7.9678E+00  7.8499E+00 -8.9397E+00  7.2540E+00  1.1645E+00  2.7186E+00 -1.2802E+03 -2.5374E+01  3.5424E+03
   1089  2.3243E+00  1.0408E+01  2.8627E+00 -2.7454E+00 -1.7287E+00  4.6280E+00 -3.1988E+03  5.5206E+03 -4.9688E+03
   1153  1.0420E+01  9.3789E+00  5.7862E+00  5.6914E+00  1.0981E-01 -2.4550E+00  3.6995E+03 -1.9473E+03 -4.0438E+03
   1217  5.5424E+00 -5.3173E+00 -3.2249E+00 -2.5599E+00  4.7869E-01 -7.5146E+00  1.6996E+03  3.7264E+03 -7.3837E+03


long range correction for: vdw energy    -0.234027E+02
                         : vdw pressure  -0.404795E+01

 time elapsed since job start =           0.403 seconds

 ------------------------------------------------------------------------------------------------------------------------

     step     eng_tot    temp_tot     eng_cfg     eng_vdw     eng_cou     eng_bnd     eng_ang     eng_dih     eng_tet
 time          eng_pv    temp_rot     vir_cfg     vir_vdw     vir_cou     vir_bnd     vir_ang     vir_con     vir_tet
 cpu time      volume    temp_shl     eng_shl     vir_shl       alpha        beta       gamma     vir_pmf       press

 ------------------------------------------------------------------------------------------------------------------------
        1 -6.7188E+03  1.1999E+03 -6.8378E+03  6.6327E+02 -7.6997E+03  0.0000E+00  0.0000E+00  0.0000E+00  0.0000E+00
   0.500f -6.7260E+03  0.0000E+00  2.5944E+02 -7.8383E+03  7.7004E+03  0.0000E+00  0.0000E+00  0.0000E+00  0.0000E+00
   0.443s  1.8283E+04  1.2878E+00  1.9866E+02  3.9731E+02  9.0000E+01  9.0000E+01  9.0000E+01  0.0000E+00 -6.2042E-01

  rolling -6.7188E+03  1.1999E+03 -6.8378E+03  6.6327E+02 -7.6997E+03  0.0000E+00  0.0000E+00  0.0000E+00  0.0000E+00
 averages -6.7260E+03  0.0000E+00  2.5944E+02 -7.8383E+03  7.7004E+03  0.0000E+00  0.0000E+00  0.0000E+00  0.0000E+00
           1.8283E+04  1.2878E+00  1.9866E+02  3.9731E+02  9.0000E+01  9.0000E+01  9.0000E+01  0.0000E+00 -6.2042E-01
 ------------------------------------------------------------------------------------------------------------------------
       10 -6.7189E+03  1.2212E+03 -6.8399E+03  6.6094E+02 -7.6969E+03  0.0000E+00  0.0000E+00  0.0000E+00  0.0000E+00
   5.000f -6.7287E+03  0.0000E+00  2.7160E+02 -7.8181E+03  7.6976E+03  0.0000E+00  0.0000E+00  0.0000E+00  0.0000E+00
   0.522s  1.8282E+04  7.0874E+01  1.9603E+02  3.9206E+02  9.0000E+01  9.0000E+01  9.0000E+01  0.0000E+00 -8.4907E-01

  rolling -6.7188E+03  1.2109E+03 -6.8389E+03  6.6194E+02 -7.6981E+03  0.0000E+00  0.0000E+00  0.0000E+00  0.0000E+00
 averages -6.7275E+03  0.0000E+00  2.6617E+02 -7.8271E+03  7.6987E+03  0.0000E+00  0.0000E+00  0.0000E+00  0.0000E+00
           1.8283E+04  3.4163E+01  1.9731E+02  3.9462E+02  9.0000E+01  9.0000E+01  9.0000E+01  0.0000E+00 -7.5180E-01
 ------------------------------------------------------------------------------------------------------------------------
       20 -6.7209E+03  1.1918E+03 -6.8391E+03  6.5952E+02 -7.6950E+03  0.0000E+00  0.0000E+00  0.0000E+00  0.0000E+00
  10.000f -6.7365E+03  0.0000E+00  2.8325E+02 -7.8052E+03  7.6956E+03  0.0000E+00  0.0000E+00  0.0000E+00  0.0000E+00
   0.606s  1.8279E+04  4.2642E+01  1.9642E+02  3.9284E+02  9.0000E+01  9.0000E+01  9.0000E+01  0.0000E+00 -1.3535E+00

  rolling -6.7198E+03  1.2008E+03 -6.8389E+03  6.6109E+02 -7.6966E+03  0.0000E+00  0.0000E+00  0.0000E+00  0.0000E+00
 averages -6.7310E+03  0.0000E+00  2.7153E+02 -7.8191E+03  7.6973E+03  0.0000E+00  0.0000E+00  0.0000E+00  0.0000E+00
           1.8282E+04  2.5781E+01  1.9668E+02  3.9336E+02  9.0000E+01  9.0000E+01  9.0000E+01  0.0000E+00 -9.6377E-01
 ------------------------------------------------------------------------------------------------------------------------
       30 -6.7201E+03  1.1971E+03 -6.8388E+03  6.5913E+02 -7.6952E+03  0.0000E+00  0.0000E+00  0.0000E+00  0.0000E+00
  15.000f -6.7376E+03  0.0000E+00  2.8975E+02 -7.8008E+03  7.6961E+03  0.0000E+00  0.0000E+00  0.0000E+00  0.0000E+00
   0.691s  1.8277E+04  4.0183E+01  1.9724E+02  3.9448E+02  9.0000E+01  9.0000E+01  9.0000E+01  0.0000E+00 -1.5104E+00

  rolling -6.7199E+03  1.1985E+03 -6.8387E+03  6.6050E+02 -7.6959E+03  0.0000E+00  0.0000E+00  0.0000E+00  0.0000E+00
 averages -6.7328E+03  0.0000E+00  2.7638E+02 -7.8135E+03  7.6965E+03  0.0000E+00  0.0000E+00  0.0000E+00  0.0000E+00
           1.8280E+04  2.2598E+01  1.9667E+02  3.9334E+02  9.0000E+01  9.0000E+01  9.0000E+01  0.0000E+00 -1.1166E+00
 ------------------------------------------------------------------------------------------------------------------------
       40 -6.7198E+03  1.1974E+03 -6.8385E+03  6.5985E+02 -7.6964E+03  0.0000E+00  0.0000E+00  0.0000E+00  0.0000E+00
  20.000f -6.7370E+03  0.0000E+00  2.8889E+02 -7.8041E+03  7.6971E+03  0.0000E+00  0.0000E+00  0.0000E+00  0.0000E+00
   0.786s  1.8274E+04  4.0170E+01  1.9798E+02  3.9597E+02  9.0000E+01  9.0000E+01  9.0000E+01  0.0000E+00 -1.4841E+00

  rolling -6.7199E+03  1.1976E+03 -6.8386E+03  6.6024E+02 -7.6957E+03  0.0000E+00  0.0000E+00  0.0000E+00  0.0000E+00
 averages -6.7339E+03  0.0000E+00  2.7948E+02 -7.8106E+03  7.6963E+03  0.0000E+00  0.0000E+00  0.0000E+00  0.0000E+00
           1.8279E+04  2.0992E+01  1.9686E+02  3.9373E+02  9.0000E+01  9.0000E+01  9.0000E+01  0.0000E+00 -1.2113E+00
 ------------------------------------------------------------------------------------------------------------------------
       50 -6.7195E+03  1.1926E+03 -6.8377E+03  6.6139E+02 -7.6978E+03  0.0000E+00  0.0000E+00  0.0000E+00  0.0000E+00
  25.000f -6.7352E+03  0.0000E+00  2.8361E+02 -7.8121E+03  7.6983E+03  0.0000E+00  0.0000E+00  0.0000E+00  0.0000E+00
   0.879s  1.8271E+04  4.0463E+01  1.9870E+02  3.9740E+02  9.0000E+01  9.0000E+01  9.0000E+01  0.0000E+00 -1.3595E+00

  rolling -6.7198E+03  1.1965E+03 -6.8384E+03  6.6034E+02 -7.6959E+03  0.0000E+00  0.0000E+00  0.0000E+00  0.0000E+00
 averages -6.7342E+03  0.0000E+00  2.8060E+02 -7.8102E+03  7.6965E+03  0.0000E+00  0.0000E+00  0.0000E+00  0.0000E+00
           1.8278E+04  2.0056E+01  1.9713E+02  3.9425E+02  9.0000E+01  9.0000E+01  9.0000E+01  0.0000E+00 -1.2500E+00
 ------------------------------------------------------------------------------------------------------------------------
       60 -6.7188E+03  1.1913E+03 -6.8369E+03  6.6237E+02 -7.6986E+03  0.0000E+00  0.0000E+00  0.0000E+00  0.0000E+00
  30.000f -6.7343E+03  0.0000E+00  2.8279E+02 -7.8152E+03  7.6993E+03  0.0000E+00  0.0000E+00  0.0000E+00  0.0000E+00
   0.970s  1.8268E+04  4.0222E+01  1.9937E+02  3.9875E+02  9.0000E+01  9.0000E+01  9.0000E+01  0.0000E+00 -1.3438E+00

  rolling -6.7196E+03  1.1956E+03 -6.8381E+03  6.6065E+02 -7.6962E+03  0.0000E+00  0.0000E+00  0.0000E+00  0.0000E+00
 averages -6.7341E+03  0.0000E+00  2.8068E+02 -7.8110E+03  7.6968E+03  0.0000E+00  0.0000E+00  0.0000E+00  0.0000E+00
           1.8276E+04  1.9416E+01  1.9742E+02  3.9484E+02  9.0000E+01  9.0000E+01  9.0000E+01  0.0000E+00 -1.2577E+00
 ------------------------------------------------------------------------------------------------------------------------
       70 -6.7180E+03  1.1986E+03 -6.8368E+03  6.6154E+02 -7.6984E+03  0.0000E+00  0.0000E+00  0.0000E+00  0.0000E+00
  35.000f -6.7367E+03  0.0000E+00  2.9381E+02 -7.8056E+03  7.6992E+03  0.0000E+00  0.0000E+00  0.0000E+00  0.0000E+00
   1.054s  1.8265E+04  4.0384E+01  2.0009E+02  4.0019E+02  9.0000E+01  9.0000E+01  9.0000E+01  0.0000E+00 -1.6198E+00

  rolling -6.7193E+03  1.1954E+03 -6.8379E+03  6.6088E+02 -7.6965E+03  0.0000E+00  0.0000E+00  0.0000E+00  0.0000E+00
 averages -6.7342E+03  0.0000E+00  2.8146E+02 -7.8111E+03  7.6971E+03  0.0000E+00  0.0000E+00  0.0000E+00  0.0000E+00
           1.8275E+04  1.8966E+01  1.9773E+02  3.9545E+02  9.0000E+01  9.0000E+01  9.0000E+01  0.0000E+00 -1.2813E+00
 ------------------------------------------------------------------------------------------------------------------------
 ------------------------------------------------------------------------------------------------------------------------

     step     eng_tot    temp_tot     eng_cfg     eng_vdw     eng_cou     eng_bnd     eng_ang     eng_dih     eng_tet
 time          eng_pv    temp_rot     vir_cfg     vir_vdw     vir_cou     vir_bnd     vir_ang     vir_con     vir_tet
 cpu time      volume    temp_shl     eng_shl     vir_shl       alpha        beta       gamma     vir_pmf       press

 ------------------------------------------------------------------------------------------------------------------------
       80 -6.7177E+03  1.2119E+03 -6.8379E+03  6.5820E+02 -7.6971E+03  0.0000E+00  0.0000E+00  0.0000E+00  0.0000E+00
  40.000f -6.7443E+03  0.0000E+00  3.2007E+02 -7.7798E+03  7.6979E+03  0.0000E+00  0.0000E+00  0.0000E+00  0.0000E+00
   1.155s  1.8261E+04  4.0296E+01  2.0097E+02  4.0195E+02  9.0000E+01  9.0000E+01  9.0000E+01  0.0000E+00 -2.3024E+00

  rolling -6.7191E+03  1.1962E+03 -6.8377E+03  6.6078E+02 -7.6966E+03  0.0000E+00  0.0000E+00  0.0000E+00  0.0000E+00
 averages -6.7349E+03  0.0000E+00  2.8451E+02 -7.8089E+03  7.6973E+03  0.0000E+00  0.0000E+00  0.0000E+00  0.0000E+00
           1.8273E+04  1.8627E+01  1.9805E+02  3.9611E+02  9.0000E+01  9.0000E+01  9.0000E+01  0.0000E+00 -1.3652E+00
 ------------------------------------------------------------------------------------------------------------------------
       90 -6.7190E+03  1.2230E+03 -6.8402E+03  6.5369E+02 -7.6961E+03  0.0000E+00  0.0000E+00  0.0000E+00  0.0000E+00
  45.000f -6.7559E+03  0.0000E+00  3.5330E+02 -7.7480E+03  7.6970E+03  0.0000E+00  0.0000E+00  0.0000E+00  0.0000E+00
   1.248s  1.8256E+04  4.0136E+01  2.0213E+02  4.0427E+02  9.0000E+01  9.0000E+01  9.0000E+01  0.0000E+00 -3.1989E+00

  rolling -6.7191E+03  1.1975E+03 -6.8379E+03  6.6023E+02 -7.6965E+03  0.0000E+00  0.0000E+00  0.0000E+00  0.0000E+00
 averages -6.7368E+03  0.0000E+00  2.9038E+02 -7.8037E+03  7.6972E+03  0.0000E+00  0.0000E+00  0.0000E+00  0.0000E+00
           1.8272E+04  1.8353E+01  1.9842E+02  3.9683E+02  9.0000E+01  9.0000E+01  9.0000E+01  0.0000E+00 -1.5270E+00
 ------------------------------------------------------------------------------------------------------------------------
      100 -6.7214E+03  1.2254E+03 -6.8428E+03  6.4999E+02 -7.6963E+03  0.0000E+00  0.0000E+00  0.0000E+00  0.0000E+00
  50.000f -6.7671E+03  0.0000E+00  3.8032E+02 -7.7238E+03  7.6972E+03  0.0000E+00  0.0000E+00  0.0000E+00  0.0000E+00
   1.338s  1.8248E+04  4.0780E+01  2.0343E+02  4.0686E+02  9.0000E+01  9.0000E+01  9.0000E+01  0.0000E+00 -3.9668E+00

  rolling -6.7193E+03  1.1988E+03 -6.8382E+03  6.5936E+02 -7.6964E+03  0.0000E+00  0.0000E+00  0.0000E+00  0.0000E+00
 averages -6.7395E+03  0.0000E+00  2.9817E+02 -7.7966E+03  7.6971E+03  0.0000E+00  0.0000E+00  0.0000E+00  0.0000E+00
           1.8270E+04  1.8159E+01  1.9883E+02  3.9766E+02  9.0000E+01  9.0000E+01  9.0000E+01  0.0000E+00 -1.7450E+00
 ------------------------------------------------------------------------------------------------------------------------


 switching off temperature scaling at step    100


 ------------------------------------------------------------------------------------------------------------------------
      110 -6.7238E+03  1.2188E+03 -6.8447E+03  6.4865E+02 -7.6978E+03  0.0000E+00  0.0000E+00  0.0000E+00  0.0000E+00
  55.000f -6.7735E+03  0.0000E+00  3.9061E+02 -7.7175E+03  7.6990E+03  0.0000E+00  0.0000E+00  0.0000E+00  0.0000E+00
   1.422s  1.8239E+04  3.9982E+01  2.0450E+02  4.0901E+02  9.0000E+01  9.0000E+01  9.0000E+01  0.0000E+00 -4.3037E+00

  rolling -6.7199E+03  1.1984E+03 -6.8387E+03  6.5806E+02 -7.6962E+03  0.0000E+00  0.0000E+00  0.0000E+00  0.0000E+00
 averages -6.7441E+03  0.0000E+00  3.1026E+02 -7.7857E+03  7.6970E+03  0.0000E+00  0.0000E+00  0.0000E+00  0.0000E+00
           1.8266E+04  1.6361E+01  1.9948E+02  3.9895E+02  9.0000E+01  9.0000E+01  9.0000E+01  0.0000E+00 -2.0965E+00
 ------------------------------------------------------------------------------------------------------------------------
      120 -6.7242E+03  1.2212E+03 -6.8453E+03  6.5110E+02 -7.7080E+03  0.0000E+00  0.0000E+00  0.0000E+00  0.0000E+00
  60.000f -6.7734E+03  0.0000E+00  3.8956E+02 -7.7426E+03  7.7090E+03  0.0000E+00  0.0000E+00  0.0000E+00  0.0000E+00
   1.524s  1.8231E+04  4.8871E+01  2.1157E+02  4.2313E+02  9.0000E+01  9.0000E+01  9.0000E+01  0.0000E+00 -4.2620E+00

  rolling -6.7202E+03  1.2019E+03 -6.8393E+03  6.5700E+02 -7.6970E+03  0.0000E+00  0.0000E+00  0.0000E+00  0.0000E+00
 averages -6.7480E+03  0.0000E+00  3.2170E+02 -7.7774E+03  7.6978E+03  0.0000E+00  0.0000E+00  0.0000E+00  0.0000E+00
           1.8261E+04  2.0079E+01  2.0066E+02  4.0132E+02  9.0000E+01  9.0000E+01  9.0000E+01  0.0000E+00 -2.4075E+00
 ------------------------------------------------------------------------------------------------------------------------
      130 -6.7243E+03  1.1993E+03 -6.8432E+03  6.5600E+02 -7.7132E+03  0.0000E+00  0.0000E+00  0.0000E+00  0.0000E+00
  65.000f -6.7652E+03  0.0000E+00  3.6041E+02 -7.7817E+03  7.7142E+03  0.0000E+00  0.0000E+00  0.0000E+00  0.0000E+00
   1.616s  1.8222E+04  2.2957E+01  2.1397E+02  4.2794E+02  9.0000E+01  9.0000E+01  9.0000E+01  0.0000E+00 -3.5465E+00

  rolling -6.7206E+03  1.2032E+03 -6.8399E+03  6.5645E+02 -7.6988E+03  0.0000E+00  0.0000E+00  0.0000E+00  0.0000E+00
 averages -6.7513E+03  0.0000E+00  3.3070E+02 -7.7737E+03  7.6996E+03  0.0000E+00  0.0000E+00  0.0000E+00  0.0000E+00
           1.8256E+04  2.1414E+01  2.0241E+02  4.0482E+02  9.0000E+01  9.0000E+01  9.0000E+01  0.0000E+00 -2.6607E+00
 ------------------------------------------------------------------------------------------------------------------------
      140 -6.7242E+03  1.1881E+03 -6.8420E+03  6.5847E+02 -7.7051E+03  0.0000E+00  0.0000E+00  0.0000E+00  0.0000E+00
  70.000f -6.7508E+03  0.0000E+00  3.1529E+02 -7.7995E+03  7.7056E+03  0.0000E+00  0.0000E+00  0.0000E+00  0.0000E+00
   1.700s  1.8216E+04  3.1544E+01  2.0456E+02  4.0913E+02  9.0000E+01  9.0000E+01  9.0000E+01  0.0000E+00 -2.3059E+00

  rolling -6.7211E+03  1.2032E+03 -6.8403E+03  6.5627E+02 -7.7002E+03  0.0000E+00  0.0000E+00  0.0000E+00  0.0000E+00
 averages -6.7533E+03  0.0000E+00  3.3537E+02 -7.7729E+03  7.7011E+03  0.0000E+00  0.0000E+00  0.0000E+00  0.0000E+00
           1.8250E+04  2.2698E+01  2.0357E+02  4.0715E+02  9.0000E+01  9.0000E+01  9.0000E+01  0.0000E+00 -2.7965E+00
 ------------------------------------------------------------------------------------------------------------------------
      150 -6.7240E+03  1.1763E+03 -6.8406E+03  6.6099E+02 -7.7015E+03  0.0000E+00  0.0000E+00  0.0000E+00  0.0000E+00
  75.000f -6.7401E+03  0.0000E+00  2.8171E+02 -7.8206E+03  7.7024E+03  0.0000E+00  0.0000E+00  0.0000E+00  0.0000E+00
   1.784s  1.8212E+04  2.8049E+01  1.9998E+02  3.9995E+02  9.0000E+01  9.0000E+01  9.0000E+01  0.0000E+00 -1.4028E+00

  rolling -6.7215E+03  1.2019E+03 -6.8407E+03  6.5615E+02 -7.7007E+03  0.0000E+00  0.0000E+00  0.0000E+00  0.0000E+00
 averages -6.7542E+03  0.0000E+00  3.3649E+02 -7.7729E+03  7.7016E+03  0.0000E+00  0.0000E+00  0.0000E+00  0.0000E+00
           1.8245E+04  2.3982E+01  2.0387E+02  4.0774E+02  9.0000E+01  9.0000E+01  9.0000E+01  0.0000E+00 -2.8363E+00
 ------------------------------------------------------------------------------------------------------------------------
 ------------------------------------------------------------------------------------------------------------------------

     step     eng_tot    temp_tot     eng_cfg     eng_vdw     eng_cou     eng_bnd     eng_ang     eng_dih     eng_tet
 time          eng_pv    temp_rot     vir_cfg     vir_vdw     vir_cou     vir_bnd     vir_ang     vir_con     vir_tet
 cpu time      volume    temp_shl     eng_shl     vir_shl       alpha        beta       gamma     vir_pmf       press

 ------------------------------------------------------------------------------------------------------------------------
      160 -6.7241E+03  1.1794E+03 -6.8410E+03  6.6815E+02 -7.7132E+03  0.0000E+00  0.0000E+00  0.0000E+00  0.0000E+00
  80.000f -6.7275E+03  0.0000E+00  2.4398E+02 -7.8783E+03  7.7141E+03  0.0000E+00  0.0000E+00  0.0000E+00  0.0000E+00
   1.880s  1.8210E+04  3.0380E+01  2.0405E+02  4.0810E+02  9.0000E+01  9.0000E+01  9.0000E+01  0.0000E+00 -2.9304E-01

  rolling -6.7221E+03  1.2006E+03 -6.8411E+03  6.5640E+02 -7.7017E+03  0.0000E+00  0.0000E+00  0.0000E+00  0.0000E+00
 averages -6.7542E+03  0.0000E+00  3.3457E+02 -7.7764E+03  7.7026E+03  0.0000E+00  0.0000E+00  0.0000E+00  0.0000E+00
           1.8239E+04  2.5232E+01  2.0417E+02  4.0835E+02  9.0000E+01  9.0000E+01  9.0000E+01  0.0000E+00 -2.7892E+00
 ------------------------------------------------------------------------------------------------------------------------
      170 -6.7241E+03  1.1908E+03 -6.8421E+03  6.7394E+02 -7.7220E+03  0.0000E+00  0.0000E+00  0.0000E+00  0.0000E+00
  85.000f -6.7150E+03  0.0000E+00  2.0882E+02 -7.9260E+03  7.7229E+03  0.0000E+00  0.0000E+00  0.0000E+00  0.0000E+00
   1.990s  1.8211E+04  4.2262E+01  2.0599E+02  4.1197E+02  9.0000E+01  9.0000E+01  9.0000E+01  0.0000E+00  7.9016E-01

  rolling -6.7227E+03  1.1997E+03 -6.8416E+03  6.5735E+02 -7.7037E+03  0.0000E+00  0.0000E+00  0.0000E+00  0.0000E+00
 averages -6.7528E+03  0.0000E+00  3.2828E+02 -7.7860E+03  7.7047E+03  0.0000E+00  0.0000E+00  0.0000E+00  0.0000E+00
           1.8233E+04  2.7333E+01  2.0478E+02  4.0956E+02  9.0000E+01  9.0000E+01  9.0000E+01  0.0000E+00 -2.6123E+00
 ------------------------------------------------------------------------------------------------------------------------
      180 -6.7240E+03  1.1873E+03 -6.8417E+03  6.7489E+02 -7.7194E+03  0.0000E+00  0.0000E+00  0.0000E+00  0.0000E+00
  90.000f -6.7084E+03  0.0000E+00  1.8858E+02 -7.9372E+03  7.7202E+03  0.0000E+00  0.0000E+00  0.0000E+00  0.0000E+00
   2.073s  1.8213E+04  3.1653E+01  2.0282E+02  4.0564E+02  9.0000E+01  9.0000E+01  9.0000E+01  0.0000E+00  1.3559E+00

  rolling -6.7233E+03  1.1986E+03 -6.8421E+03  6.5881E+02 -7.7061E+03  0.0000E+00  0.0000E+00  0.0000E+00  0.0000E+00
 averages -6.7499E+03  0.0000E+00  3.1743E+02 -7.8001E+03  7.7071E+03  0.0000E+00  0.0000E+00  0.0000E+00  0.0000E+00
           1.8228E+04  2.9487E+01  2.0520E+02  4.1039E+02  9.0000E+01  9.0000E+01  9.0000E+01  0.0000E+00 -2.3053E+00
 ------------------------------------------------------------------------------------------------------------------------
      190 -6.7238E+03  1.1846E+03 -6.8413E+03  6.7682E+02 -7.7165E+03  0.0000E+00  0.0000E+00  0.0000E+00  0.0000E+00
  95.000f -6.6992E+03  0.0000E+00  1.6095E+02 -7.9532E+03  7.7173E+03  0.0000E+00  0.0000E+00  0.0000E+00  0.0000E+00
   2.163s  1.8217E+04  3.0668E+01  1.9843E+02  3.9686E+02  9.0000E+01  9.0000E+01  9.0000E+01  0.0000E+00  2.1392E+00

  rolling -6.7238E+03  1.1963E+03 -6.8424E+03  6.6079E+02 -7.7083E+03  0.0000E+00  0.0000E+00  0.0000E+00  0.0000E+00
 averages -6.7451E+03  0.0000E+00  3.0117E+02 -7.8182E+03  7.7092E+03  0.0000E+00  0.0000E+00  0.0000E+00  0.0000E+00
           1.8224E+04  3.0852E+01  2.0510E+02  4.1019E+02  9.0000E+01  9.0000E+01  9.0000E+01  0.0000E+00 -1.8485E+00
 ------------------------------------------------------------------------------------------------------------------------
      200 -6.7235E+03  1.1728E+03 -6.8398E+03  6.8126E+02 -7.7172E+03  0.0000E+00  0.0000E+00  0.0000E+00  0.0000E+00
 100.000f -6.6874E+03  0.0000E+00  1.2407E+02 -7.9861E+03  7.7180E+03  0.0000E+00  0.0000E+00  0.0000E+00  0.0000E+00
   2.247s  1.8222E+04  3.1038E+01  1.9611E+02  3.9222E+02  9.0000E+01  9.0000E+01  9.0000E+01  0.0000E+00  3.1377E+00

  rolling -6.7241E+03  1.1932E+03 -6.8424E+03  6.6356E+02 -7.7105E+03  0.0000E+00  0.0000E+00  0.0000E+00  0.0000E+00
 averages -6.7380E+03  0.0000E+00  2.7839E+02 -7.8420E+03  7.7114E+03  0.0000E+00  0.0000E+00  0.0000E+00  0.0000E+00
           1.8220E+04  3.2297E+01  2.0454E+02  4.0908E+02  9.0000E+01  9.0000E+01  9.0000E+01  0.0000E+00 -1.2082E+00
 ------------------------------------------------------------------------------------------------------------------------
      210 -6.7237E+03  1.1638E+03 -6.8391E+03  6.8465E+02 -7.7186E+03  0.0000E+00  0.0000E+00  0.0000E+00  0.0000E+00
 105.000f -6.6792E+03  0.0000E+00  9.7307E+01 -8.0119E+03  7.7194E+03  0.0000E+00  0.0000E+00  0.0000E+00  0.0000E+00
   2.357s  1.8229E+04  3.5346E+01  1.9487E+02  3.8975E+02  9.0000E+01  9.0000E+01  9.0000E+01  0.0000E+00  3.8586E+00

  rolling -6.7240E+03  1.1892E+03 -6.8419E+03  6.6699E+02 -7.7126E+03  0.0000E+00  0.0000E+00  0.0000E+00  0.0000E+00
 averages -6.7289E+03  0.0000E+00  2.5050E+02 -7.8704E+03  7.7135E+03  0.0000E+00  0.0000E+00  0.0000E+00  0.0000E+00
           1.8219E+04  3.4043E+01  2.0370E+02  4.0740E+02  9.0000E+01  9.0000E+01  9.0000E+01  0.0000E+00 -4.2494E-01
 ------------------------------------------------------------------------------------------------------------------------
      220 -6.7234E+03  1.1586E+03 -6.8383E+03  6.8759E+02 -7.7205E+03  0.0000E+00  0.0000E+00  0.0000E+00  0.0000E+00
 110.000f -6.6721E+03  0.0000E+00  7.5703E+01 -8.0346E+03  7.7211E+03  0.0000E+00  0.0000E+00  0.0000E+00  0.0000E+00
   2.440s  1.8237E+04  3.4476E+01  1.9462E+02  3.8924E+02  9.0000E+01  9.0000E+01  9.0000E+01  0.0000E+00  4.4515E+00

  rolling -6.7240E+03  1.1826E+03 -6.8412E+03  6.7065E+02 -7.7142E+03  0.0000E+00  0.0000E+00  0.0000E+00  0.0000E+00
 averages -6.7191E+03  0.0000E+00  2.1993E+02 -7.8999E+03  7.7151E+03  0.0000E+00  0.0000E+00  0.0000E+00  0.0000E+00
           1.8219E+04  3.2059E+01  2.0238E+02  4.0475E+02  9.0000E+01  9.0000E+01  9.0000E+01  0.0000E+00  4.2117E-01
 ------------------------------------------------------------------------------------------------------------------------
      230 -6.7231E+03  1.1597E+03 -6.8381E+03  6.9029E+02 -7.7231E+03  0.0000E+00  0.0000E+00  0.0000E+00  0.0000E+00
 115.000f -6.6657E+03  0.0000E+00  5.7676E+01 -8.0547E+03  7.7230E+03  0.0000E+00  0.0000E+00  0.0000E+00  0.0000E+00
   2.530s  1.8247E+04  3.3183E+01  1.9469E+02  3.8938E+02  9.0000E+01  9.0000E+01  9.0000E+01  0.0000E+00  4.9763E+00

  rolling -6.7239E+03  1.1779E+03 -6.8407E+03  6.7418E+02 -7.7153E+03  0.0000E+00  0.0000E+00  0.0000E+00  0.0000E+00
 averages -6.7090E+03  0.0000E+00  1.8881E+02 -7.9281E+03  7.7161E+03  0.0000E+00  0.0000E+00  0.0000E+00  0.0000E+00
           1.8220E+04  3.2550E+01  2.0043E+02  4.0086E+02  9.0000E+01  9.0000E+01  9.0000E+01  0.0000E+00  1.2932E+00
 ------------------------------------------------------------------------------------------------------------------------
 ------------------------------------------------------------------------------------------------------------------------

     step     eng_tot    temp_tot     eng_cfg     eng_vdw     eng_cou     eng_bnd     eng_ang     eng_dih     eng_tet
 time          eng_pv    temp_rot     vir_cfg     vir_vdw     vir_cou     vir_bnd     vir_ang     vir_con     vir_tet
 cpu time      volume    temp_shl     eng_shl     vir_shl       alpha        beta       gamma     vir_pmf       press

 ------------------------------------------------------------------------------------------------------------------------
      240 -6.7230E+03  1.1673E+03 -6.8387E+03  6.8857E+02 -7.7209E+03  0.0000E+00  0.0000E+00  0.0000E+00  0.0000E+00
 120.000f -6.6682E+03  0.0000E+00  6.7252E+01 -8.0415E+03  7.7215E+03  0.0000E+00  0.0000E+00  0.0000E+00  0.0000E+00
   2.634s  1.8257E+04  2.9616E+01  1.9364E+02  3.8729E+02  9.0000E+01  9.0000E+01  9.0000E+01  0.0000E+00  4.7408E+00

  rolling -6.7237E+03  1.1747E+03 -6.8402E+03  6.7741E+02 -7.7166E+03  0.0000E+00  0.0000E+00  0.0000E+00  0.0000E+00
 averages -6.6999E+03  0.0000E+00  1.6130E+02 -7.9539E+03  7.7173E+03  0.0000E+00  0.0000E+00  0.0000E+00  0.0000E+00
           1.8224E+04  3.2693E+01  1.9895E+02  3.9789E+02  9.0000E+01  9.0000E+01  9.0000E+01  0.0000E+00  2.0700E+00
 ------------------------------------------------------------------------------------------------------------------------
      250 -6.7228E+03  1.1821E+03 -6.8400E+03  6.8262E+02 -7.7149E+03  0.0000E+00  0.0000E+00  0.0000E+00  0.0000E+00
 125.000f -6.6789E+03  0.0000E+00  1.0269E+02 -7.9974E+03  7.7156E+03  0.0000E+00  0.0000E+00  0.0000E+00  0.0000E+00
   2.718s  1.8266E+04  3.1826E+01  1.9224E+02  3.8448E+02  9.0000E+01  9.0000E+01  9.0000E+01  0.0000E+00  3.8003E+00

  rolling -6.7236E+03  1.1743E+03 -6.8400E+03  6.7999E+02 -7.7181E+03  0.0000E+00  0.0000E+00  0.0000E+00  0.0000E+00
 averages -6.6928E+03  0.0000E+00  1.4026E+02 -7.9748E+03  7.7189E+03  0.0000E+00  0.0000E+00  0.0000E+00  0.0000E+00
           1.8228E+04  3.2870E+01  1.9811E+02  3.9621E+02  9.0000E+01  9.0000E+01  9.0000E+01  0.0000E+00  2.6755E+00
 ------------------------------------------------------------------------------------------------------------------------
      260 -6.7226E+03  1.1925E+03 -6.8408E+03  6.7840E+02 -7.7127E+03  0.0000E+00  0.0000E+00  0.0000E+00  0.0000E+00
 130.000f -6.6887E+03  0.0000E+00  1.3479E+02 -7.9653E+03  7.7132E+03  0.0000E+00  0.0000E+00  0.0000E+00  0.0000E+00
   2.801s  1.8273E+04  3.6714E+01  1.9345E+02  3.8691E+02  9.0000E+01  9.0000E+01  9.0000E+01  0.0000E+00  2.9325E+00

  rolling -6.7235E+03  1.1754E+03 -6.8400E+03  6.8153E+02 -7.7187E+03  0.0000E+00  0.0000E+00  0.0000E+00  0.0000E+00
 averages -6.6878E+03  0.0000E+00  1.2618E+02 -7.9876E+03  7.7194E+03  0.0000E+00  0.0000E+00  0.0000E+00  0.0000E+00
           1.8234E+04  3.3406E+01  1.9718E+02  3.9436E+02  9.0000E+01  9.0000E+01  9.0000E+01  0.0000E+00  3.0883E+00
 ------------------------------------------------------------------------------------------------------------------------
      270 -6.7224E+03  1.1965E+03 -6.8410E+03  6.7561E+02 -7.7133E+03  0.0000E+00  0.0000E+00  0.0000E+00  0.0000E+00
 135.000f -6.6979E+03  0.0000E+00  1.6363E+02 -7.9434E+03  7.7136E+03  0.0000E+00  0.0000E+00  0.0000E+00  0.0000E+00
   2.885s  1.8278E+04  3.7151E+01  1.9669E+02  3.9337E+02  9.0000E+01  9.0000E+01  9.0000E+01  0.0000E+00  2.1229E+00

  rolling -6.7233E+03  1.1763E+03 -6.8400E+03  6.8204E+02 -7.7181E+03  0.0000E+00  0.0000E+00  0.0000E+00  0.0000E+00
 averages -6.6852E+03  0.0000E+00  1.1890E+02 -7.9922E+03  7.7188E+03  0.0000E+00  0.0000E+00  0.0000E+00  0.0000E+00
           1.8241E+04  3.3459E+01  1.9614E+02  3.9228E+02  9.0000E+01  9.0000E+01  9.0000E+01  0.0000E+00  3.3033E+00
 ------------------------------------------------------------------------------------------------------------------------
      280 -6.7227E+03  1.2004E+03 -6.8417E+03  6.7172E+02 -7.7118E+03  0.0000E+00  0.0000E+00  0.0000E+00  0.0000E+00
 140.000f -6.7089E+03  0.0000E+00  1.9660E+02 -7.9125E+03  7.7123E+03  0.0000E+00  0.0000E+00  0.0000E+00  0.0000E+00
   2.988s  1.8282E+04  3.5683E+01  1.9838E+02  3.9676E+02  9.0000E+01  9.0000E+01  9.0000E+01  0.0000E+00  1.1941E+00

  rolling -6.7232E+03  1.1772E+03 -6.8399E+03  6.8193E+02 -7.7173E+03  0.0000E+00  0.0000E+00  0.0000E+00  0.0000E+00
 averages -6.6845E+03  0.0000E+00  1.1735E+02 -7.9915E+03  7.7179E+03  0.0000E+00  0.0000E+00  0.0000E+00  0.0000E+00
           1.8248E+04  3.3291E+01  1.9547E+02  3.9094E+02  9.0000E+01  9.0000E+01  9.0000E+01  0.0000E+00  3.3525E+00
 ------------------------------------------------------------------------------------------------------------------------
      290 -6.7227E+03  1.2026E+03 -6.8420E+03  6.6775E+02 -7.7081E+03  0.0000E+00  0.0000E+00  0.0000E+00  0.0000E+00
 145.000f -6.7182E+03  0.0000E+00  2.2479E+02 -7.8807E+03  7.7087E+03  0.0000E+00  0.0000E+00  0.0000E+00  0.0000E+00
   3.090s  1.8284E+04  3.3220E+01  1.9839E+02  3.9679E+02  9.0000E+01  9.0000E+01  9.0000E+01  0.0000E+00  3.9408E-01

  rolling -6.7231E+03  1.1788E+03 -6.8399E+03  6.8131E+02 -7.7165E+03  0.0000E+00  0.0000E+00  0.0000E+00  0.0000E+00
 averages -6.6855E+03  0.0000E+00  1.2114E+02 -7.9865E+03  7.7171E+03  0.0000E+00  0.0000E+00  0.0000E+00  0.0000E+00
           1.8255E+04  3.3740E+01  1.9528E+02  3.9056E+02  9.0000E+01  9.0000E+01  9.0000E+01  0.0000E+00  3.2518E+00
 ------------------------------------------------------------------------------------------------------------------------
      300 -6.7228E+03  1.2062E+03 -6.8423E+03  6.6515E+02 -7.7071E+03  0.0000E+00  0.0000E+00  0.0000E+00  0.0000E+00
 150.000f -6.7251E+03  0.0000E+00  2.4619E+02 -7.8608E+03  7.7078E+03  0.0000E+00  0.0000E+00  0.0000E+00  0.0000E+00
   3.187s  1.8284E+04  3.6476E+01  1.9959E+02  3.9919E+02  9.0000E+01  9.0000E+01  9.0000E+01  0.0000E+00 -2.0259E-01

  rolling -6.7230E+03  1.1814E+03 -6.8401E+03  6.8001E+02 -7.7156E+03  0.0000E+00  0.0000E+00  0.0000E+00  0.0000E+00
 averages -6.6885E+03  0.0000E+00  1.3080E+02 -7.9763E+03  7.7161E+03  0.0000E+00  0.0000E+00  0.0000E+00  0.0000E+00
           1.8261E+04  3.4120E+01  1.9547E+02  3.9093E+02  9.0000E+01  9.0000E+01  9.0000E+01  0.0000E+00  2.9872E+00
 ------------------------------------------------------------------------------------------------------------------------
      310 -6.7227E+03  1.2014E+03 -6.8418E+03  6.6458E+02 -7.7091E+03  0.0000E+00  0.0000E+00  0.0000E+00  0.0000E+00
 155.000f -6.7297E+03  0.0000E+00  2.5919E+02 -7.8564E+03  7.7101E+03  0.0000E+00  0.0000E+00  0.0000E+00  0.0000E+00
   3.271s  1.8283E+04  3.5520E+01  2.0274E+02  4.0548E+02  9.0000E+01  9.0000E+01  9.0000E+01  0.0000E+00 -6.0459E-01

  rolling -6.7229E+03  1.1851E+03 -6.8404E+03  6.7815E+02 -7.7146E+03  0.0000E+00  0.0000E+00  0.0000E+00  0.0000E+00
 averages -6.6930E+03  0.0000E+00  1.4539E+02 -7.9619E+03  7.7152E+03  0.0000E+00  0.0000E+00  0.0000E+00  0.0000E+00
           1.8267E+04  3.4403E+01  1.9606E+02  3.9212E+02  9.0000E+01  9.0000E+01  9.0000E+01  0.0000E+00  2.5865E+00
 ------------------------------------------------------------------------------------------------------------------------
 ------------------------------------------------------------------------------------------------------------------------

     step     eng_tot    temp_tot     eng_cfg     eng_vdw     eng_cou     eng_bnd     eng_ang     eng_dih     eng_tet
 time          eng_pv    temp_rot     vir_cfg     vir_vdw     vir_cou     vir_bnd     vir_ang     vir_con     vir_tet
 cpu time      volume    temp_shl     eng_shl     vir_shl       alpha        beta       gamma     vir_pmf       press

 ------------------------------------------------------------------------------------------------------------------------
      320 -6.7226E+03  1.1909E+03 -6.8407E+03  6.6519E+02 -7.7100E+03  0.0000E+00  0.0000E+00  0.0000E+00  0.0000E+00
 160.000f -6.7307E+03  0.0000E+00  2.6043E+02 -7.8589E+03  7.7111E+03  0.0000E+00  0.0000E+00  0.0000E+00  0.0000E+00
   3.360s  1.8282E+04  3.5866E+01  2.0412E+02  4.0823E+02  9.0000E+01  9.0000E+01  9.0000E+01  0.0000E+00 -6.9996E-01

  rolling -6.7228E+03  1.1886E+03 -6.8406E+03  6.7602E+02 -7.7136E+03  0.0000E+00  0.0000E+00  0.0000E+00  0.0000E+00
 averages -6.6985E+03  0.0000E+00  1.6290E+02 -7.9453E+03  7.7142E+03  0.0000E+00  0.0000E+00  0.0000E+00  0.0000E+00
           1.8272E+04  3.4460E+01  1.9697E+02  3.9394E+02  9.0000E+01  9.0000E+01  9.0000E+01  0.0000E+00  2.1010E+00
 ------------------------------------------------------------------------------------------------------------------------
      330 -6.7227E+03  1.1826E+03 -6.8400E+03  6.6515E+02 -7.7080E+03  0.0000E+00  0.0000E+00  0.0000E+00  0.0000E+00
 165.000f -6.7307E+03  0.0000E+00  2.5847E+02 -7.8562E+03  7.7089E+03  0.0000E+00  0.0000E+00  0.0000E+00  0.0000E+00
   3.456s  1.8280E+04  3.6015E+01  2.0285E+02  4.0571E+02  9.0000E+01  9.0000E+01  9.0000E+01  0.0000E+00 -6.9126E-01

  rolling -6.7227E+03  1.1913E+03 -6.8408E+03  6.7362E+02 -7.7123E+03  0.0000E+00  0.0000E+00  0.0000E+00  0.0000E+00
 averages -6.7048E+03  0.0000E+00  1.8233E+02 -7.9264E+03  7.7130E+03  0.0000E+00  0.0000E+00  0.0000E+00  0.0000E+00
           1.8276E+04  3.4640E+01  1.9785E+02  3.9571E+02  9.0000E+01  9.0000E+01  9.0000E+01  0.0000E+00  1.5551E+00
 ------------------------------------------------------------------------------------------------------------------------
      340 -6.7226E+03  1.1834E+03 -6.8399E+03  6.6562E+02 -7.7080E+03  0.0000E+00  0.0000E+00  0.0000E+00  0.0000E+00
 170.000f -6.7296E+03  0.0000E+00  2.5553E+02 -7.8583E+03  7.7090E+03  0.0000E+00  0.0000E+00  0.0000E+00  0.0000E+00
   3.548s  1.8279E+04  3.5548E+01  2.0243E+02  4.0486E+02  9.0000E+01  9.0000E+01  9.0000E+01  0.0000E+00 -6.0240E-01

  rolling -6.7227E+03  1.1932E+03 -6.8410E+03  6.7116E+02 -7.7108E+03  0.0000E+00  0.0000E+00  0.0000E+00  0.0000E+00
 averages -6.7112E+03  0.0000E+00  2.0201E+02 -7.9069E+03  7.7115E+03  0.0000E+00  0.0000E+00  0.0000E+00  0.0000E+00
           1.8278E+04  3.5142E+01  1.9867E+02  3.9734E+02  9.0000E+01  9.0000E+01  9.0000E+01  0.0000E+00  9.9792E-01
 ------------------------------------------------------------------------------------------------------------------------
      350 -6.7225E+03  1.1912E+03 -6.8406E+03  6.6764E+02 -7.7122E+03  0.0000E+00  0.0000E+00  0.0000E+00  0.0000E+00
 175.000f -6.7267E+03  0.0000E+00  2.4886E+02 -7.8723E+03  7.7132E+03  0.0000E+00  0.0000E+00  0.0000E+00  0.0000E+00
   3.649s  1.8278E+04  3.7100E+01  2.0401E+02  4.0802E+02  9.0000E+01  9.0000E+01  9.0000E+01  0.0000E+00 -3.6534E-01

  rolling -6.7227E+03  1.1944E+03 -6.8411E+03  6.6929E+02 -7.7101E+03  0.0000E+00  0.0000E+00  0.0000E+00  0.0000E+00
 averages -6.7166E+03  0.0000E+00  2.1862E+02 -7.8916E+03  7.7108E+03  0.0000E+00  0.0000E+00  0.0000E+00  0.0000E+00
           1.8280E+04  3.5693E+01  1.9972E+02  3.9944E+02  9.0000E+01  9.0000E+01  9.0000E+01  0.0000E+00  5.2520E-01
 ------------------------------------------------------------------------------------------------------------------------
      360 -6.7223E+03  1.1988E+03 -6.8411E+03  6.6954E+02 -7.7154E+03  0.0000E+00  0.0000E+00  0.0000E+00  0.0000E+00
 180.000f -6.7230E+03  0.0000E+00  2.3981E+02 -7.8851E+03  7.7154E+03  0.0000E+00  0.0000E+00  0.0000E+00  0.0000E+00
   3.732s  1.8277E+04  3.8204E+01  2.0473E+02  4.0946E+02  9.0000E+01  9.0000E+01  9.0000E+01  0.0000E+00 -6.0873E-02

  rolling -6.7226E+03  1.1951E+03 -6.8411E+03  6.6816E+02 -7.7102E+03  0.0000E+00  0.0000E+00  0.0000E+00  0.0000E+00
 averages -6.7206E+03  0.0000E+00  2.3094E+02 -7.8818E+03  7.7109E+03  0.0000E+00  0.0000E+00  0.0000E+00  0.0000E+00
           1.8281E+04  3.6068E+01  2.0091E+02  4.0183E+02  9.0000E+01  9.0000E+01  9.0000E+01  0.0000E+00  1.7424E-01
 ------------------------------------------------------------------------------------------------------------------------
      370 -6.7226E+03  1.1977E+03 -6.8414E+03  6.7090E+02 -7.7152E+03  0.0000E+00  0.0000E+00  0.0000E+00  0.0000E+00
 185.000f -6.7200E+03  0.0000E+00  2.2959E+02 -7.8925E+03  7.7162E+03  0.0000E+00  0.0000E+00  0.0000E+00  0.0000E+00
   3.816s  1.8277E+04  3.4680E+01  2.0298E+02  4.0596E+02  9.0000E+01  9.0000E+01  9.0000E+01  0.0000E+00  2.2793E-01

  rolling -6.7226E+03  1.1955E+03 -6.8411E+03  6.6750E+02 -7.7104E+03  0.0000E+00  0.0000E+00  0.0000E+00  0.0000E+00
 averages -6.7234E+03  0.0000E+00  2.3937E+02 -7.8754E+03  7.7112E+03  0.0000E+00  0.0000E+00  0.0000E+00  0.0000E+00
           1.8281E+04  3.5941E+01  2.0179E+02  4.0357E+02  9.0000E+01  9.0000E+01  9.0000E+01  0.0000E+00 -6.6621E-02
 ------------------------------------------------------------------------------------------------------------------------
      380 -6.7226E+03  1.1937E+03 -6.8409E+03  6.7223E+02 -7.7142E+03  0.0000E+00  0.0000E+00  0.0000E+00  0.0000E+00
 190.000f -6.7163E+03  0.0000E+00  2.1786E+02 -7.8995E+03  7.7153E+03  0.0000E+00  0.0000E+00  0.0000E+00  0.0000E+00
   3.920s  1.8278E+04  3.6093E+01  2.0102E+02  4.0204E+02  9.0000E+01  9.0000E+01  9.0000E+01  0.0000E+00  5.4318E-01

  rolling -6.7226E+03  1.1952E+03 -6.8411E+03  6.6730E+02 -7.7106E+03  0.0000E+00  0.0000E+00  0.0000E+00  0.0000E+00
 averages -6.7248E+03  0.0000E+00  2.4348E+02 -7.8723E+03  7.7114E+03  0.0000E+00  0.0000E+00  0.0000E+00  0.0000E+00
           1.8280E+04  3.5815E+01  2.0218E+02  4.0435E+02  9.0000E+01  9.0000E+01  9.0000E+01  0.0000E+00 -1.8691E-01
 ------------------------------------------------------------------------------------------------------------------------
      390 -6.7224E+03  1.1893E+03 -6.8404E+03  6.7427E+02 -7.7167E+03  0.0000E+00  0.0000E+00  0.0000E+00  0.0000E+00
 195.000f -6.7134E+03  0.0000E+00  2.0861E+02 -7.9132E+03  7.7176E+03  0.0000E+00  0.0000E+00  0.0000E+00  0.0000E+00
   4.003s  1.8280E+04  3.6813E+01  2.0208E+02  4.0417E+02  9.0000E+01  9.0000E+01  9.0000E+01  0.0000E+00  7.8453E-01

  rolling -6.7226E+03  1.1942E+03 -6.8410E+03  6.6769E+02 -7.7111E+03  0.0000E+00  0.0000E+00  0.0000E+00  0.0000E+00
 averages -6.7248E+03  0.0000E+00  2.4347E+02 -7.8735E+03  7.7120E+03  0.0000E+00  0.0000E+00  0.0000E+00  0.0000E+00
           1.8280E+04  3.6064E+01  2.0247E+02  4.0494E+02  9.0000E+01  9.0000E+01  9.0000E+01  0.0000E+00 -1.9284E-01
 ------------------------------------------------------------------------------------------------------------------------
 ------------------------------------------------------------------------------------------------------------------------

     step     eng_tot    temp_tot     eng_cfg     eng_vdw     eng_cou     eng_bnd     eng_ang     eng_dih     eng_tet
 time          eng_pv    temp_rot     vir_cfg     vir_vdw     vir_cou     vir_bnd     vir_ang     vir_con     vir_tet
 cpu time      volume    temp_shl     eng_shl     vir_shl       alpha        beta       gamma     vir_pmf       press

 ------------------------------------------------------------------------------------------------------------------------
      400 -6.7223E+03  1.1907E+03 -6.8404E+03  6.7610E+02 -7.7209E+03  0.0000E+00  0.0000E+00  0.0000E+00  0.0000E+00
 200.000f -6.7114E+03  0.0000E+00  2.0336E+02 -7.9272E+03  7.7217E+03  0.0000E+00  0.0000E+00  0.0000E+00  0.0000E+00
   4.087s  1.8281E+04  3.9118E+01  2.0446E+02  4.0891E+02  9.0000E+01  9.0000E+01  9.0000E+01  0.0000E+00  9.4384E-01

  rolling -6.7226E+03  1.1927E+03 -6.8408E+03  6.6861E+02 -7.7123E+03  0.0000E+00  0.0000E+00  0.0000E+00  0.0000E+00
 averages -6.7238E+03  0.0000E+00  2.4030E+02 -7.8788E+03  7.7132E+03  0.0000E+00  0.0000E+00  0.0000E+00  0.0000E+00
           1.8280E+04  3.6392E+01  2.0293E+02  4.0586E+02  9.0000E+01  9.0000E+01  9.0000E+01  0.0000E+00 -1.0991E-01
 ------------------------------------------------------------------------------------------------------------------------
      410 -6.7224E+03  1.1916E+03 -6.8405E+03  6.7628E+02 -7.7216E+03  0.0000E+00  0.0000E+00  0.0000E+00  0.0000E+00
 205.000f -6.7114E+03  0.0000E+00  2.0343E+02 -7.9289E+03  7.7227E+03  0.0000E+00  0.0000E+00  0.0000E+00  0.0000E+00
   4.202s  1.8283E+04  3.7427E+01  2.0486E+02  4.0973E+02  9.0000E+01  9.0000E+01  9.0000E+01  0.0000E+00  9.4688E-01

  rolling -6.7225E+03  1.1914E+03 -6.8406E+03  6.6977E+02 -7.7137E+03  0.0000E+00  0.0000E+00  0.0000E+00  0.0000E+00
 averages -6.7222E+03  0.0000E+00  2.3520E+02 -7.8860E+03  7.7146E+03  0.0000E+00  0.0000E+00  0.0000E+00  0.0000E+00
           1.8280E+04  3.6595E+01  2.0329E+02  4.0658E+02  9.0000E+01  9.0000E+01  9.0000E+01  0.0000E+00  2.9612E-02
 ------------------------------------------------------------------------------------------------------------------------
      420 -6.7223E+03  1.1893E+03 -6.8402E+03  6.7551E+02 -7.7190E+03  0.0000E+00  0.0000E+00  0.0000E+00  0.0000E+00
 210.000f -6.7119E+03  0.0000E+00  2.0464E+02 -7.9225E+03  7.7205E+03  0.0000E+00  0.0000E+00  0.0000E+00  0.0000E+00
   4.291s  1.8285E+04  3.9067E+01  2.0330E+02  4.0660E+02  9.0000E+01  9.0000E+01  9.0000E+01  0.0000E+00  8.9854E-01

  rolling -6.7225E+03  1.1909E+03 -6.8406E+03  6.7087E+02 -7.7147E+03  0.0000E+00  0.0000E+00  0.0000E+00  0.0000E+00
 averages -6.7203E+03  0.0000E+00  2.2956E+02 -7.8928E+03  7.7157E+03  0.0000E+00  0.0000E+00  0.0000E+00  0.0000E+00
           1.8280E+04  3.6864E+01  2.0332E+02  4.0664E+02  9.0000E+01  9.0000E+01  9.0000E+01  0.0000E+00  1.8952E-01
 ------------------------------------------------------------------------------------------------------------------------
      430 -6.7223E+03  1.1823E+03 -6.8395E+03  6.7508E+02 -7.7175E+03  0.0000E+00  0.0000E+00  0.0000E+00  0.0000E+00
 215.000f -6.7128E+03  0.0000E+00  2.0604E+02 -7.9186E+03  7.7188E+03  0.0000E+00  0.0000E+00  0.0000E+00  0.0000E+00
   4.395s  1.8287E+04  3.8639E+01  2.0293E+02  4.0586E+02  9.0000E+01  9.0000E+01  9.0000E+01  0.0000E+00  8.1819E-01

  rolling -6.7224E+03  1.1908E+03 -6.8405E+03  6.7187E+02 -7.7156E+03  0.0000E+00  0.0000E+00  0.0000E+00  0.0000E+00
 averages -6.7185E+03  0.0000E+00  2.2414E+02 -7.8990E+03  7.7166E+03  0.0000E+00  0.0000E+00  0.0000E+00  0.0000E+00
           1.8280E+04  3.7141E+01  2.0326E+02  4.0652E+02  9.0000E+01  9.0000E+01  9.0000E+01  0.0000E+00  3.4532E-01
 ------------------------------------------------------------------------------------------------------------------------
      440 -6.7222E+03  1.1838E+03 -6.8395E+03  6.7362E+02 -7.7172E+03  0.0000E+00  0.0000E+00  0.0000E+00  0.0000E+00
 220.000f -6.7165E+03  0.0000E+00  2.1765E+02 -7.9094E+03  7.7188E+03  0.0000E+00  0.0000E+00  0.0000E+00  0.0000E+00
   4.479s  1.8288E+04  3.9363E+01  2.0409E+02  4.0817E+02  9.0000E+01  9.0000E+01  9.0000E+01  0.0000E+00  4.9237E-01

  rolling -6.7224E+03  1.1908E+03 -6.8404E+03  6.7279E+02 -7.7166E+03  0.0000E+00  0.0000E+00  0.0000E+00  0.0000E+00
 averages -6.7169E+03  0.0000E+00  2.1956E+02 -7.9048E+03  7.7176E+03  0.0000E+00  0.0000E+00  0.0000E+00  0.0000E+00
           1.8281E+04  3.7502E+01  2.0337E+02  4.0673E+02  9.0000E+01  9.0000E+01  9.0000E+01  0.0000E+00  4.7744E-01
 ------------------------------------------------------------------------------------------------------------------------
      450 -6.7220E+03  1.1876E+03 -6.8397E+03  6.7229E+02 -7.7167E+03  0.0000E+00  0.0000E+00  0.0000E+00  0.0000E+00
 225.000f -6.7190E+03  0.0000E+00  2.2638E+02 -7.9009E+03  7.7179E+03  0.0000E+00  0.0000E+00  0.0000E+00  0.0000E+00
   4.562s  1.8289E+04  3.7384E+01  2.0467E+02  4.0935E+02  9.0000E+01  9.0000E+01  9.0000E+01  0.0000E+00  2.6228E-01

  rolling -6.7223E+03  1.1907E+03 -6.8404E+03  6.7340E+02 -7.7173E+03  0.0000E+00  0.0000E+00  0.0000E+00  0.0000E+00
 averages -6.7159E+03  0.0000E+00  2.1673E+02 -7.9087E+03  7.7184E+03  0.0000E+00  0.0000E+00  0.0000E+00  0.0000E+00
           1.8282E+04  3.7663E+01  2.0350E+02  4.0700E+02  9.0000E+01  9.0000E+01  9.0000E+01  0.0000E+00  5.5835E-01
 ------------------------------------------------------------------------------------------------------------------------
      460 -6.7220E+03  1.1902E+03 -6.8400E+03  6.7212E+02 -7.7158E+03  0.0000E+00  0.0000E+00  0.0000E+00  0.0000E+00
 230.000f -6.7182E+03  0.0000E+00  2.2446E+02 -7.9000E+03  7.7171E+03  0.0000E+00  0.0000E+00  0.0000E+00  0.0000E+00
   4.663s  1.8290E+04  4.3433E+01  2.0368E+02  4.0736E+02  9.0000E+01  9.0000E+01  9.0000E+01  0.0000E+00  3.3263E-01

  rolling -6.7223E+03  1.1901E+03 -6.8403E+03  6.7374E+02 -7.7175E+03  0.0000E+00  0.0000E+00  0.0000E+00  0.0000E+00
 averages -6.7153E+03  0.0000E+00  2.1490E+02 -7.9107E+03  7.7187E+03  0.0000E+00  0.0000E+00  0.0000E+00  0.0000E+00
           1.8283E+04  3.7927E+01  2.0346E+02  4.0692E+02  9.0000E+01  9.0000E+01  9.0000E+01  0.0000E+00  6.0745E-01
 ------------------------------------------------------------------------------------------------------------------------
      470 -6.7219E+03  1.1749E+03 -6.8384E+03  6.7290E+02 -7.7148E+03  0.0000E+00  0.0000E+00  0.0000E+00  0.0000E+00
 235.000f -6.7166E+03  0.0000E+00  2.1693E+02 -7.9060E+03  7.7160E+03  0.0000E+00  0.0000E+00  0.0000E+00  0.0000E+00
   4.755s  1.8291E+04  4.0950E+01  2.0345E+02  4.0690E+02  9.0000E+01  9.0000E+01  9.0000E+01  0.0000E+00  4.6234E-01

  rolling -6.7222E+03  1.1885E+03 -6.8401E+03  6.7395E+02 -7.7174E+03  0.0000E+00  0.0000E+00  0.0000E+00  0.0000E+00
 averages -6.7149E+03  0.0000E+00  2.1347E+02 -7.9120E+03  7.7187E+03  0.0000E+00  0.0000E+00  0.0000E+00  0.0000E+00
           1.8285E+04  3.8565E+01  2.0341E+02  4.0682E+02  9.0000E+01  9.0000E+01  9.0000E+01  0.0000E+00  6.3984E-01
 ------------------------------------------------------------------------------------------------------------------------
 ------------------------------------------------------------------------------------------------------------------------

     step     eng_tot    temp_tot     eng_cfg     eng_vdw     eng_cou     eng_bnd     eng_ang     eng_dih     eng_tet
 time          eng_pv    temp_rot     vir_cfg     vir_vdw     vir_cou     vir_bnd     vir_ang     vir_con     vir_tet
 cpu time      volume    temp_shl     eng_shl     vir_shl       alpha        beta       gamma     vir_pmf       press

 ------------------------------------------------------------------------------------------------------------------------
      480 -6.7217E+03  1.1488E+03 -6.8356E+03  6.7423E+02 -7.7133E+03  0.0000E+00  0.0000E+00  0.0000E+00  0.0000E+00
 240.000f -6.7145E+03  0.0000E+00  2.0611E+02 -7.9151E+03  7.7143E+03  0.0000E+00  0.0000E+00  0.0000E+00  0.0000E+00
   4.838s  1.8292E+04  3.9054E+01  2.0346E+02  4.0691E+02  9.0000E+01  9.0000E+01  9.0000E+01  0.0000E+00  6.2482E-01

  rolling -6.7222E+03  1.1851E+03 -6.8397E+03  6.7415E+02 -7.7174E+03  0.0000E+00  0.0000E+00  0.0000E+00  0.0000E+00
 averages -6.7146E+03  0.0000E+00  2.1231E+02 -7.9135E+03  7.7186E+03  0.0000E+00  0.0000E+00  0.0000E+00  0.0000E+00
           1.8286E+04  3.9015E+01  2.0359E+02  4.0717E+02  9.0000E+01  9.0000E+01  9.0000E+01  0.0000E+00  6.5353E-01
 ------------------------------------------------------------------------------------------------------------------------
      490 -6.7214E+03  1.1267E+03 -6.8331E+03  6.7580E+02 -7.7113E+03  0.0000E+00  0.0000E+00  0.0000E+00  0.0000E+00
 245.000f -6.7108E+03  0.0000E+00  1.9155E+02 -7.9254E+03  7.7122E+03  0.0000E+00  0.0000E+00  0.0000E+00  0.0000E+00
   4.922s  1.8293E+04  4.1364E+01  2.0239E+02  4.0479E+02  9.0000E+01  9.0000E+01  9.0000E+01  0.0000E+00  9.1805E-01

  rolling -6.7221E+03  1.1795E+03 -6.8390E+03  6.7433E+02 -7.7171E+03  0.0000E+00  0.0000E+00  0.0000E+00  0.0000E+00
 averages -6.7144E+03  0.0000E+00  2.1088E+02 -7.9149E+03  7.7183E+03  0.0000E+00  0.0000E+00  0.0000E+00  0.0000E+00
           1.8287E+04  3.9350E+01  2.0375E+02  4.0749E+02  9.0000E+01  9.0000E+01  9.0000E+01  0.0000E+00  6.6287E-01
 ------------------------------------------------------------------------------------------------------------------------
      500 -6.7210E+03  1.1215E+03 -6.8322E+03  6.7729E+02 -7.7110E+03  0.0000E+00  0.0000E+00  0.0000E+00  0.0000E+00
 250.000f -6.7064E+03  0.0000E+00  1.7856E+02 -7.9362E+03  7.7117E+03  0.0000E+00  0.0000E+00  0.0000E+00  0.0000E+00
   5.017s  1.8295E+04  4.2265E+01  2.0156E+02  4.0312E+02  9.0000E+01  9.0000E+01  9.0000E+01  0.0000E+00  1.2624E+00

  rolling -6.7220E+03  1.1728E+03 -6.8382E+03  6.7446E+02 -7.7163E+03  0.0000E+00  0.0000E+00  0.0000E+00  0.0000E+00
 averages -6.7140E+03  0.0000E+00  2.0872E+02 -7.9159E+03  7.7175E+03  0.0000E+00  0.0000E+00  0.0000E+00  0.0000E+00
           1.8289E+04  3.9785E+01  2.0359E+02  4.0717E+02  9.0000E+01  9.0000E+01  9.0000E+01  0.0000E+00  6.8676E-01
 ------------------------------------------------------------------------------------------------------------------------


 run terminating. elapsed cpu time =   5.01700E+00, job time =   1.000h, close time =  200.00s



 run terminated after     500 steps. final averages calculated over     400 steps.


 ------------------------------------------------------------------------------------------------------------------------

     step     eng_tot    temp_tot     eng_cfg     eng_vdw     eng_cou     eng_bnd     eng_ang     eng_dih     eng_tet
 time          eng_pv    temp_rot     vir_cfg     vir_vdw     vir_cou     vir_bnd     vir_ang     vir_con     vir_tet
 cpu time      volume    temp_shl     eng_shl     vir_shl       alpha        beta       gamma     vir_pmf       press

 ------------------------------------------------------------------------------------------------------------------------
      500 -6.7229E+03  1.1850E+03 -6.8404E+03  6.7166E+02 -7.7137E+03  0.0000E+00  0.0000E+00  0.0000E+00  0.0000E+00
 250.000f -6.7161E+03  0.0000E+00  2.1455E+02 -7.9033E+03  7.7145E+03  0.0000E+00  0.0000E+00  0.0000E+00  0.0000E+00
   5.055s  1.8262E+04  3.5649E+01  2.0163E+02  4.0326E+02  9.0000E+01  9.0000E+01  9.0000E+01  0.0000E+00  5.8896E-01

  r.m.s.   8.2166E-01  1.8979E+01  2.2960E+00  9.3015E+00  5.8606E+00  0.0000E+00  0.0000E+00  0.0000E+00  0.0000E+00
 fluctn.   2.5175E+01  0.0000E+00  7.6946E+01  7.4210E+01  5.8706E+00  0.0000E+00  0.0000E+00  0.0000E+00  0.0000E+00
           2.8708E+01  6.2387E+00  4.5481E+00  9.0962E+00  2.6430E-14  2.6430E-14  2.6430E-14  0.0000E+00  2.1639E+00
 ------------------------------------------------------------------------------------------------------------------------


            Approximate 3D Diffusion  coefficients (10^-9 m^2 / s)

            atom        D 
            Mg         3.9071E+00
            Cl         5.4430E+00
            Cl-shl     4.9219E+00


                Average pressure tensor                                       r.m.s. fluctuations 

           1.2772E+00 -1.7011E+00  3.1889E-01                          4.3680E+00  1.9810E+00  1.5982E+00
          -1.7011E+00 -1.2577E+00  1.1139E+00                          1.9810E+00  2.0624E+00  7.4712E-01
           3.1889E-01  1.1139E+00  1.7474E+00                          1.5982E+00  7.4712E-01  2.2153E+00

            trace/3.   5.8896E-01


                 Average cell vectors                                         r.m.s. fluctuations 

       26.3341827141        0.0000000000        0.0000000000           1.3804E-02  0.0000E+00  0.0000E+00
        0.0000000000       26.3341827141        0.0000000000           0.0000E+00  1.3804E-02  0.0000E+00
        0.0000000000        0.0000000000       26.3341827141           0.0000E+00  0.0000E+00  1.3804E-02


 sample of final configuration

      i       x(i)        y(i)        z(i)       vx(i)       vy(i)       vz(i)       fx(i)       fy(i)       fz(i)


      1 -1.1091E+01 -1.1644E+01  1.2946E+01  7.5186E+00  2.4300E+00 -1.0542E+01 -7.9815E+03 -1.7950E+02  1.4434E+03
     65  9.7666E+00 -1.2939E+01 -6.7385E+00  5.3674E+00 -9.3914E+00 -2.6547E+00 -2.8579E+03 -5.2389E+03  1.1601E+03
    129  4.0067E+00 -7.3819E+00  6.2056E+00 -8.8187E+00 -3.1686E+00 -8.3200E+00  8.6542E+02 -1.6646E+03 -1.8520E+03
    193 -1.2468E+01  5.6793E+00 -7.8544E+00  6.4939E+00 -7.0735E+00 -5.3876E+00 -2.5147E+03 -1.4750E+03  2.5121E+03
    257  7.0191E-01  8.5486E+00 -1.3049E+01 -7.2760E+00  8.2465E+00 -2.6154E-01 -1.4881E+04 -2.2673E+02 -1.5384E+04
    321 -4.8389E+00  1.2889E+01  1.2992E+00  4.5989E+00  8.4148E+00  7.7442E+00 -1.7991E+03  1.7477E+04  1.2584E+04
    385 -2.9697E+00  3.5643E+00  9.3473E-01 -5.8123E+00 -3.6563E+00  8.8184E+00  8.5496E+02  3.4599E+03 -3.2936E+03
    449  1.0787E+01  8.4176E+00 -7.5203E+00 -6.7809E-01 -9.5792E+00 -8.0279E-01  2.1236E+02 -2.0168E+03  1.7065E+03
    513 -1.2323E+01 -3.1996E+00 -1.2214E+01  4.6405E-01  2.0311E+01 -1.9063E+00 -9.8230E+03  2.1249E+03 -2.3932E+03
    577  8.6844E+00  2.8898E+00 -4.5188E+00 -8.1380E+00 -9.9803E-02 -2.1149E+00 -3.9842E+03  3.0214E+03 -1.2011E+03
    641  5.6376E-01  1.1744E+00 -3.4470E+00  3.7085E-01 -6.4174E-01  5.0593E-02  4.0766E+03  9.4735E+03  3.7141E+03
    705 -8.9895E+00  7.0971E+00  1.0246E+01 -7.7823E+00 -3.9233E+00 -2.5071E+00  3.0542E+02  1.9500E+02 -2.8954E+03
    769 -2.9863E+00 -1.1715E+01  9.3011E+00  1.7638E+00  3.6235E+00 -7.2089E+00  4.3523E+03 -2.1351E+03  5.9484E+02
    833 -1.2080E+01 -4.4088E+00  5.0725E+00 -5.8328E+00 -2.5331E+00 -7.1662E+00  3.9199E+03  1.7003E+03  7.9046E+03
    897  1.0868E+01 -7.4006E+00  7.0579E+00  2.9230E+00  3.4458E+00 -8.8077E+00 -8.0275E+03  1.4970E+02 -1.5121E+03
    961  9.2917E+00 -2.9321E+00  1.0314E+01  2.4365E+00 -9.5339E+00 -2.2091E+00 -7.9633E+03  6.9391E+03  4.0270E+03
   1025  8.0890E+00  7.2134E+00 -9.3400E+00  1.0751E+00  4.2679E-02  5.8862E+00 -3.9550E+03  1.1552E+03  5.3102E+02
   1089  2.3441E+00  1.1008E+01  2.3799E+00  6.1290E+00 -4.7726E+00 -1.7303E+00 -4.0985E+02 -8.8222E+02  1.5191E+03
   1153  1.0008E+01  9.0510E+00  5.9375E+00 -3.4698E+00 -3.0857E+00  7.4720E+00  5.6555E+03  8.6679E+03  1.2151E+03
   1217  5.6554E+00 -4.4769E+00 -3.3966E+00  1.0302E+00 -6.3553E+00  4.9765E-01 -1.2376E+03 -2.7161E+03  6.2661E+03


            RADIAL DISTRIBUTION FUNCTIONS

calculated using         54 configurations

g(r)  :Mg      Mg      

        r      g(r)         n(r)

    2.6143  0.000000E+00  0.000000E+00
    2.7000  0.000000E+00  0.000000E+00
    2.7857  6.173276E-03  7.233796E-04
    2.8714  3.718560E-02  5.353009E-03
    2.9571  1.117579E-01  2.010995E-02
    3.0429  3.808107E-01  7.335069E-02
    3.1286  6.059328E-01  1.629051E-01
    3.2143  9.450018E-01  3.103299E-01
    3.3000  1.237927E+00  5.138889E-01
    3.3857  1.428471E+00  7.611400E-01
    3.4714  1.618002E+00  1.055556E+00
    3.5571  1.646224E+00  1.370081E+00
    3.6429  1.812268E+00  1.733218E+00
    3.7286  1.671325E+00  2.084057E+00
    3.8143  1.591129E+00  2.433594E+00
    3.9000  1.574876E+00  2.795284E+00
    3.9857  1.589296E+00  3.176505E+00
    4.0714  1.626550E+00  3.583623E+00
    4.1571  1.508608E+00  3.977286E+00
    4.2429  1.377482E+00  4.351707E+00
    4.3286  1.229375E+00  4.699508E+00
    4.4143  1.048841E+00  5.008102E+00
    4.5000  9.165256E-01  5.288339E+00
    4.5857  7.841648E-01  5.537326E+00
    4.6714  6.924257E-01  5.765480E+00
    4.7571  7.240109E-01  6.012876E+00
    4.8429  5.923883E-01  6.222656E+00
    4.9286  5.912916E-01  6.439525E+00
    5.0143  5.403817E-01  6.644676E+00
    5.1000  5.540518E-01  6.862269E+00
    5.1857  6.160572E-01  7.112413E+00
    5.2714  6.406674E-01  7.381221E+00
    5.3571  6.857690E-01  7.678385E+00
    5.4429  6.811592E-01  7.983073E+00
    5.5286  7.696089E-01  8.338252E+00
    5.6143  8.204621E-01  8.728733E+00
    5.7000  8.983077E-01  9.169416E+00
    5.7857  9.643445E-01  9.656829E+00
    5.8714  1.028672E+00  1.019227E+01
    5.9571  1.029794E+00  1.074407E+01
    6.0429  1.098137E+00  1.134954E+01
    6.1286  1.155393E+00  1.200477E+01
    6.2143  1.147808E+00  1.267405E+01
    6.3000  1.163140E+00  1.337109E+01
    6.3857  1.204968E+00  1.411299E+01
    6.4714  1.253568E+00  1.490567E+01
    6.5571  1.361852E+00  1.578979E+01
    6.6429  1.275690E+00  1.663976E+01
    6.7286  1.242338E+00  1.748900E+01
    6.8143  1.257091E+00  1.837037E+01
    6.9000  1.194255E+00  1.922888E+01
    6.9857  1.209306E+00  2.011994E+01
    7.0714  1.109078E+00  2.095732E+01
    7.1571  1.101752E+00  2.180946E+01
    7.2429  1.084232E+00  2.266826E+01
    7.3286  1.036717E+00  2.350897E+01
    7.4143  9.965012E-01  2.433608E+01
    7.5000  9.750469E-01  2.516421E+01
    7.5857  9.654588E-01  2.600304E+01
    7.6714  9.161636E-01  2.681713E+01
    7.7571  9.180037E-01  2.765119E+01
    7.8429  8.972690E-01  2.848452E+01
    7.9286  9.237015E-01  2.936126E+01
    8.0143  9.346315E-01  3.026765E+01
    8.1000  9.321888E-01  3.119112E+01
    8.1857  9.057619E-01  3.210749E+01
    8.2714  8.847062E-01  3.302141E+01
    8.3571  8.773527E-01  3.394661E+01
    8.4429  8.305938E-01  3.484057E+01
    8.5286  8.268924E-01  3.574870E+01
    8.6143  8.806338E-01  3.673539E+01
    8.7000  9.099534E-01  3.777532E+01
    8.7857  9.298980E-01  3.885909E+01
    8.8714  9.754467E-01  4.001823E+01
    8.9571  1.006789E+00  4.123785E+01
    9.0429  1.005487E+00  4.247931E+01
    9.1286  1.012105E+00  4.375275E+01
    9.2143  1.024060E+00  4.506554E+01
    9.3000  1.029643E+00  4.641016E+01
    9.3857  1.015056E+00  4.776027E+01
    9.4714  1.055087E+00  4.918938E+01
    9.5571  1.046947E+00  5.063325E+01
    9.6429  1.026150E+00  5.207393E+01
    9.7286  1.039937E+00  5.356004E+01
    9.8143  1.048115E+00  5.508435E+01
    9.9000  1.083423E+00  5.668764E+01
    9.9857  1.065000E+00  5.829109E+01
   10.0714  1.075383E+00  5.993808E+01
   10.1571  1.035019E+00  6.155035E+01
   10.2429  1.029094E+00  6.318056E+01
   10.3286  1.016396E+00  6.481771E+01
   10.4143  1.024383E+00  6.649523E+01
   10.5000  1.019286E+00  6.819198E+01
   10.5857  1.011739E+00  6.990379E+01
   10.6714  1.004302E+00  7.163064E+01
   10.7571  9.727112E-01  7.333015E+01
   10.8429  9.585343E-01  7.503168E+01
   10.9286  9.806226E-01  7.680006E+01
   11.0143  9.658934E-01  7.856930E+01
   11.1000  9.601327E-01  8.035547E+01
   11.1857  9.775621E-01  8.220226E+01
   11.2714  9.647118E-01  8.405281E+01
   11.3571  9.566681E-01  8.591594E+01
   11.4429  9.534397E-01  8.780093E+01
   11.5286  9.456592E-01  8.969864E+01
   11.6143  9.473802E-01  9.162818E+01
   11.7000  9.468495E-01  9.358521E+01
   11.7857  9.842434E-01  9.564945E+01
   11.8714  9.880992E-01  9.775203E+01
   11.9571  1.007292E+00  9.992650E+01

g(r)  :Mg      Cl      

        r      g(r)         n(r)

    1.6714  0.000000E+00  0.000000E+00
    1.7571  0.000000E+00  0.000000E+00
    1.8429  7.052312E-04  7.233796E-05
    1.9286  1.674262E-02  1.953125E-03
    2.0143  3.246745E-01  4.173900E-02
    2.1000  1.745581E+00  2.742332E-01
    2.1857  4.637591E+00  9.433594E-01
    2.2714  6.533727E+00  1.961444E+00
    2.3571  5.898679E+00  2.951244E+00
    2.4429  3.988081E+00  3.669994E+00
    2.5286  2.361660E+00  4.126013E+00
    2.6143  1.372081E+00  4.409216E+00
    2.7000  8.352273E-01  4.593099E+00
    2.7857  6.120804E-01  4.736545E+00
    2.8714  4.308301E-01  4.843822E+00
    2.9571  3.875918E-01  4.946181E+00
    3.0429  3.210503E-01  5.035952E+00
    3.1286  2.792283E-01  5.118490E+00
    3.2143  2.830832E-01  5.206814E+00
    3.3000  2.355756E-01  5.284288E+00
    3.3857  2.745773E-01  5.379340E+00
    3.4714  2.967662E-01  5.487341E+00
    3.5571  3.398083E-01  5.617187E+00
    3.6429  3.637172E-01  5.762948E+00
    3.7286  4.488454E-01  5.951389E+00
    3.8143  5.215952E-01  6.180556E+00
    3.9000  5.515217E-01  6.433883E+00
    3.9857  5.761573E-01  6.710286E+00
    4.0714  6.190602E-01  7.020182E+00
    4.1571  7.027418E-01  7.386936E+00
    4.2429  7.475552E-01  7.793330E+00
    4.3286  8.743441E-01  8.288050E+00
    4.4143  9.587327E-01  8.852214E+00
    4.5000  1.021569E+00  9.476924E+00
    4.5857  1.081587E+00  1.016377E+01
    4.6714  1.151043E+00  1.092231E+01
    4.7571  1.214624E+00  1.175239E+01
    4.8429  1.190803E+00  1.259578E+01
    4.9286  1.252599E+00  1.351461E+01
    5.0143  1.308654E+00  1.450825E+01
    5.1000  1.371776E+00  1.558572E+01
    5.1857  1.384258E+00  1.670985E+01
    5.2714  1.404089E+00  1.788809E+01
    5.3571  1.434139E+00  1.913100E+01
    5.4429  1.349866E+00  2.033861E+01
    5.5286  1.310294E+00  2.154803E+01
    5.6143  1.227197E+00  2.271615E+01
    5.7000  1.166163E+00  2.386032E+01
    5.7857  1.124353E+00  2.499689E+01
    5.8714  1.060775E+00  2.610120E+01
    5.9571  9.884833E-01  2.716052E+01
    6.0429  9.543430E-01  2.821289E+01
    6.1286  8.944796E-01  2.922743E+01
    6.2143  8.247547E-01  3.018924E+01
    6.3000  8.100097E-01  3.116008E+01
    6.3857  8.023332E-01  3.214808E+01
    6.4714  7.958633E-01  3.315459E+01
    6.5571  7.969208E-01  3.418931E+01
    6.6429  8.025990E-01  3.525883E+01
    6.7286  7.876780E-01  3.633572E+01
    6.8143  8.144161E-01  3.747772E+01
    6.9000  8.222827E-01  3.865994E+01
    6.9857  8.406140E-01  3.989873E+01
    7.0714  8.585389E-01  4.119517E+01
    7.1571  8.713474E-01  4.254304E+01
    7.2429  8.934044E-01  4.395833E+01
    7.3286  9.637048E-01  4.552134E+01
    7.4143  1.032016E+00  4.723452E+01
    7.5000  1.011032E+00  4.895190E+01
    7.5857  1.033481E+00  5.074776E+01
    7.6714  1.082602E+00  5.267173E+01
    7.7571  1.104192E+00  5.467817E+01
    7.8429  1.115784E+00  5.675072E+01
    7.9286  1.130391E+00  5.889656E+01
    8.0143  1.149343E+00  6.112580E+01
    8.1000  1.165017E+00  6.343403E+01
    8.1857  1.143678E+00  6.574819E+01
    8.2714  1.134803E+00  6.809274E+01
    8.3571  1.110959E+00  7.043584E+01
    8.4429  1.087306E+00  7.277633E+01
    8.5286  1.080085E+00  7.514873E+01
    8.6143  1.054243E+00  7.751114E+01
    8.7000  1.015342E+00  7.983189E+01
    8.7857  1.026351E+00  8.222425E+01
    8.8714  1.010662E+00  8.462623E+01
    8.9571  9.910241E-01  8.702727E+01
    9.0429  9.865337E-01  8.946340E+01
    9.1286  9.639836E-01  9.188918E+01
    9.2143  9.411951E-01  9.430230E+01
    9.3000  9.500437E-01  9.678364E+01
    9.3857  9.279848E-01  9.925224E+01
    9.4714  9.100631E-01  1.017176E+02
    9.5571  9.158686E-01  1.042438E+02
    9.6429  8.942232E-01  1.067547E+02
    9.7286  9.288011E-01  1.094093E+02
    9.8143  9.400799E-01  1.121437E+02
    9.9000  9.404920E-01  1.149272E+02
    9.9857  9.506730E-01  1.177899E+02
   10.0714  9.456599E-01  1.206865E+02
   10.1571  9.497353E-01  1.236453E+02
   10.2429  9.745482E-01  1.267329E+02
   10.3286  9.682081E-01  1.298520E+02
   10.4143  9.950078E-01  1.331108E+02
   10.5000  1.012594E+00  1.364821E+02
   10.5857  1.014155E+00  1.399138E+02
   10.6714  1.008005E+00  1.433803E+02
   10.7571  1.012685E+00  1.469190E+02
   10.8429  1.024326E+00  1.505556E+02
   10.9286  1.036421E+00  1.542936E+02
   11.0143  1.052440E+00  1.581492E+02
   11.1000  1.064615E+00  1.621102E+02
   11.1857  1.067296E+00  1.661429E+02
   11.2714  1.040642E+00  1.701353E+02
   11.3571  1.043231E+00  1.741987E+02
   11.4429  1.046449E+00  1.783364E+02
   11.5286  1.047312E+00  1.825399E+02
   11.6143  1.042903E+00  1.867880E+02
   11.7000  1.023216E+00  1.910178E+02
   11.7857  1.004955E+00  1.952331E+02
   11.8714  9.904108E-01  1.994481E+02
   11.9571  1.002785E+00  2.037776E+02

g(r)  :Mg      Cl-shl  

        r      g(r)         n(r)

    1.7571  0.000000E+00  0.000000E+00
    1.8429  0.000000E+00  0.000000E+00
    1.9286  8.628891E-02  9.693287E-03
    2.0143  1.952769E+00  2.489873E-01
    2.1000  6.549461E+00  1.121311E+00
    2.1857  7.519415E+00  2.206236E+00
    2.2714  5.527253E+00  3.067491E+00
    2.3571  3.529810E+00  3.659795E+00
    2.4429  2.153387E+00  4.047888E+00
    2.5286  1.352410E+00  4.309028E+00
    2.6143  8.698611E-01  4.488571E+00
    2.7000  6.456419E-01  4.630715E+00
    2.7857  4.889235E-01  4.745298E+00
    2.8714  3.858006E-01  4.841363E+00
    2.9571  2.982950E-01  4.920139E+00
    3.0429  2.894885E-01  5.001085E+00
    3.1286  2.758022E-01  5.082610E+00
    3.2143  2.520159E-01  5.161241E+00
    3.3000  2.243577E-01  5.235026E+00
    3.3857  2.641292E-01  5.326461E+00
    3.4714  2.542290E-01  5.418981E+00
    3.5571  2.873699E-01  5.528791E+00
    3.6429  3.626342E-01  5.674117E+00
    3.7286  4.099053E-01  5.846209E+00
    3.8143  4.684149E-01  6.052011E+00
    3.9000  5.324657E-01  6.296586E+00
    3.9857  5.649991E-01  6.567636E+00
    4.0714  6.054768E-01  6.870732E+00
    4.1571  7.027418E-01  7.237486E+00
    4.2429  7.619262E-01  7.651693E+00
    4.3286  8.491583E-01  8.132161E+00
    4.4143  9.674607E-01  8.701461E+00
    4.5000  1.043216E+00  9.339410E+00
    4.5857  1.097762E+00  1.003653E+01
    4.6714  1.193523E+00  1.082306E+01
    4.7571  1.234735E+00  1.166688E+01
    4.8429  1.300088E+00  1.258767E+01
    4.9286  1.265222E+00  1.351577E+01
    5.0143  1.335997E+00  1.453016E+01
    5.1000  1.365145E+00  1.560243E+01
    5.1857  1.379448E+00  1.672266E+01
    5.2714  1.401503E+00  1.789873E+01
    5.3571  1.392405E+00  1.910547E+01
    5.4429  1.356901E+00  2.031937E+01
    5.5286  1.305122E+00  2.152402E+01
    5.6143  1.202042E+00  2.266819E+01
    5.7000  1.145298E+00  2.379188E+01
    5.7857  1.091793E+00  2.489554E+01
    5.8714  1.021793E+00  2.595927E+01
    5.9571  9.760631E-01  2.700528E+01
    6.0429  9.245608E-01  2.802481E+01
    6.1286  9.122735E-01  2.905953E+01
    6.2143  8.791553E-01  3.008478E+01
    6.3000  8.463427E-01  3.109918E+01
    6.3857  7.994547E-01  3.208362E+01
    6.4714  8.135377E-01  3.311249E+01
    6.5571  7.743570E-01  3.411791E+01
    6.6429  7.911449E-01  3.517216E+01
    6.7286  8.120697E-01  3.628241E+01
    6.8143  8.145708E-01  3.742462E+01
    6.9000  8.273141E-01  3.861408E+01
    6.9857  8.332019E-01  3.984194E+01
    7.0714  8.647664E-01  4.114779E+01
    7.1571  9.000603E-01  4.254008E+01
    7.2429  9.269213E-01  4.400846E+01
    7.3286  9.839538E-01  4.560431E+01
    7.4143  1.001948E+00  4.726758E+01
    7.5000  1.052681E+00  4.905570E+01
    7.5857  1.083685E+00  5.093880E+01
    7.6714  1.101529E+00  5.289641E+01
    7.7571  1.112353E+00  5.491768E+01
    7.8429  1.133114E+00  5.702242E+01
    7.9286  1.130620E+00  5.916869E+01
    8.0143  1.134313E+00  6.136878E+01
    8.1000  1.166039E+00  6.367904E+01
    8.1857  1.139281E+00  6.598430E+01
    8.2714  1.112290E+00  6.828234E+01
    8.3571  1.106089E+00  7.061516E+01
    8.4429  1.087273E+00  7.295558E+01
    8.5286  1.056801E+00  7.527684E+01
    8.6143  1.020735E+00  7.756416E+01
    8.7000  1.007209E+00  7.986632E+01
    8.7857  1.004876E+00  8.220862E+01
    8.8714  9.869824E-01  8.455433E+01
    8.9571  1.001205E+00  8.698003E+01
    9.0429  9.679613E-01  8.937030E+01
    9.1286  9.646448E-01  9.179774E+01
    9.2143  9.484744E-01  9.422953E+01
    9.3000  9.329827E-01  9.666630E+01
    9.3857  9.241506E-01  9.912471E+01
    9.4714  9.088882E-01  1.015869E+02
    9.5571  9.070829E-01  1.040888E+02
    9.6429  9.190062E-01  1.066693E+02
    9.7286  9.268776E-01  1.093184E+02
    9.8143  9.303558E-01  1.120245E+02
    9.9000  9.437671E-01  1.148178E+02
    9.9857  9.392379E-01  1.176460E+02
   10.0714  9.651668E-01  1.206024E+02
   10.1571  9.568172E-01  1.235833E+02
   10.2429  9.893434E-01  1.267177E+02
   10.3286  9.827364E-01  1.298836E+02
   10.4143  9.912752E-01  1.331302E+02
   10.5000  9.983189E-01  1.364539E+02
   10.5857  9.998535E-01  1.398373E+02
   10.6714  1.031648E+00  1.433851E+02
   10.7571  1.023284E+00  1.469608E+02
   10.8429  1.022064E+00  1.505894E+02
   10.9286  1.039229E+00  1.543375E+02
   11.0143  1.057357E+00  1.582111E+02
   11.1000  1.058938E+00  1.621510E+02
   11.1857  1.045471E+00  1.661012E+02
   11.2714  1.035212E+00  1.700728E+02
   11.3571  1.051811E+00  1.741696E+02
   11.4429  1.045553E+00  1.783038E+02
   11.5286  1.046104E+00  1.825024E+02
   11.6143  1.033473E+00  1.867122E+02
   11.7000  1.033926E+00  1.909862E+02
   11.7857  1.011974E+00  1.952310E+02
   11.8714  9.909718E-01  1.994484E+02
   11.9571  9.966863E-01  2.037515E+02

g(r)  :Cl      Cl      

        r      g(r)         n(r)

    2.4429  0.000000E+00  0.000000E+00
    2.5286  0.000000E+00  0.000000E+00
    2.6143  6.308420E-03  1.302083E-03
    2.7000  4.501422E-02  1.121238E-02
    2.7857  1.734691E-01  5.186632E-02
    2.8714  4.770216E-01  1.706453E-01
    2.9571  8.822849E-01  4.036458E-01
    3.0429  1.412259E+00  7.985388E-01
    3.1286  1.827832E+00  1.338831E+00
    3.2143  2.143642E+00  2.007668E+00
    3.3000  2.391829E+00  2.794271E+00
    3.3857  2.323877E+00  3.598741E+00
    3.4714  2.189669E+00  4.395616E+00
    3.5571  2.062703E+00  5.183811E+00
    3.6429  1.902701E+00  5.946325E+00
    3.7286  1.658747E+00  6.642723E+00
    3.8143  1.464188E+00  7.286024E+00
    3.9000  1.299745E+00  7.883030E+00
    3.9857  1.148997E+00  8.434245E+00
    4.0714  1.004022E+00  8.936849E+00
    4.1571  9.263163E-01  9.420284E+00
    4.2429  8.975187E-01  9.908203E+00
    4.3286  8.302369E-01  1.037797E+01
    4.4143  8.099871E-01  1.085460E+01
    4.5000  7.919642E-01  1.133890E+01
    4.5857  7.829118E-01  1.183608E+01
    4.6714  7.441272E-01  1.232646E+01
    4.7571  7.162839E-01  1.281597E+01
    4.8429  7.005502E-01  1.331214E+01
    4.9286  6.643648E-01  1.379948E+01
    5.0143  6.765251E-01  1.431315E+01
    5.1000  6.540685E-01  1.482690E+01
    5.1857  6.357433E-01  1.534317E+01
    5.2714  6.323056E-01  1.587377E+01
    5.3571  6.817625E-01  1.646463E+01
    5.4429  7.185162E-01  1.710742E+01
    5.5286  7.753300E-01  1.782306E+01
    5.6143  8.107346E-01  1.859476E+01
    5.7000  8.655723E-01  1.944401E+01
    5.7857  9.599794E-01  2.041442E+01
    5.8714  1.052853E+00  2.151049E+01
    5.9571  1.117073E+00  2.270761E+01
    6.0429  1.176266E+00  2.400470E+01
    6.1286  1.217513E+00  2.538563E+01
    6.2143  1.206303E+00  2.679239E+01
    6.3000  1.231763E+00  2.826874E+01
    6.3857  1.281278E+00  2.984650E+01
    6.4714  1.294579E+00  3.148372E+01
    6.5571  1.265524E+00  3.312688E+01
    6.6429  1.243988E+00  3.478458E+01
    6.7286  1.200750E+00  3.642622E+01
    6.8143  1.188840E+00  3.809324E+01
    6.9000  1.132821E+00  3.972193E+01
    6.9857  1.096504E+00  4.133782E+01
    7.0714  1.078754E+00  4.296680E+01
    7.1571  1.029596E+00  4.455946E+01
    7.2429  1.008933E+00  4.615777E+01
    7.3286  9.663362E-01  4.772504E+01
    7.4143  9.322699E-01  4.927264E+01
    7.5000  9.110828E-01  5.082024E+01
    7.5857  8.990190E-01  5.238245E+01
    7.6714  8.860834E-01  5.395718E+01
    7.7571  8.850416E-01  5.556539E+01
    7.8429  8.834829E-01  5.720645E+01
    7.9286  8.616260E-01  5.884209E+01
    8.0143  8.769350E-01  6.054297E+01
    8.1000  8.649363E-01  6.225666E+01
    8.1857  8.616464E-01  6.400014E+01
    8.2714  8.751127E-01  6.580816E+01
    8.3571  8.870934E-01  6.767911E+01
    8.4429  8.819767E-01  6.957762E+01
    8.5286  9.356715E-01  7.163281E+01
    8.6143  9.486828E-01  7.375868E+01
    8.7000  9.922392E-01  7.602662E+01
    8.7857  1.007327E+00  7.837464E+01
    8.8714  1.033155E+00  8.083008E+01
    8.9571  1.043483E+00  8.335822E+01
    9.0429  1.045268E+00  8.593938E+01
    9.1286  1.084719E+00  8.866898E+01
    9.2143  1.086470E+00  9.145457E+01
    9.3000  1.085036E+00  9.428848E+01
    9.3857  1.079640E+00  9.716052E+01
    9.4714  1.067157E+00  1.000514E+02
    9.5571  1.100920E+00  1.030880E+02
    9.6429  1.086382E+00  1.061385E+02
    9.7286  1.063703E+00  1.091787E+02
    9.8143  1.073954E+00  1.123024E+02
    9.9000  1.060620E+00  1.154416E+02
    9.9857  1.045685E+00  1.185903E+02
   10.0714  1.017004E+00  1.217054E+02
   10.1571  1.018441E+00  1.248783E+02
   10.2429  1.009778E+00  1.280775E+02
   10.3286  9.975566E-01  1.312912E+02
   10.4143  9.823963E-01  1.345087E+02
   10.5000  9.663358E-01  1.377259E+02
   10.5857  9.664409E-01  1.409962E+02
   10.6714  9.604651E-01  1.442992E+02
   10.7571  9.542871E-01  1.476338E+02
   10.8429  9.505472E-01  1.510085E+02
   10.9286  9.392051E-01  1.543959E+02
   11.0143  9.253944E-01  1.577860E+02
   11.1000  9.395629E-01  1.612818E+02
   11.1857  9.469296E-01  1.648597E+02
   11.2714  9.403508E-01  1.684673E+02
   11.3571  9.508366E-01  1.721709E+02
   11.4429  9.566778E-01  1.759536E+02
   11.5286  9.743347E-01  1.798641E+02
   11.6143  9.877097E-01  1.838875E+02
   11.7000  9.803081E-01  1.879399E+02
   11.7857  9.984020E-01  1.921277E+02
   11.8714  1.013782E+00  1.964422E+02
   11.9571  1.027146E+00  2.008769E+02

g(r)  :Cl      Cl-shl  

        r      g(r)         n(r)

    2.2714  0.000000E+00  0.000000E+00
    2.3571  0.000000E+00  0.000000E+00
    2.4429  1.204131E-03  2.170139E-04
    2.5286  1.048960E-02  2.242477E-03
    2.6143  3.609818E-02  9.693287E-03
    2.7000  1.468712E-01  4.202836E-02
    2.7857  3.592847E-01  1.262297E-01
    2.8714  7.543157E-01  3.140553E-01
    2.9571  1.154558E+00  6.189598E-01
    3.0429  1.581063E+00  1.061053E+00
    3.1286  1.859891E+00  1.610822E+00
    3.2143  2.103185E+00  2.267036E+00
    3.3000  2.173850E+00  2.981952E+00
    3.3857  2.156184E+00  3.728371E+00
    3.4714  2.074084E+00  4.483181E+00
    3.5571  1.941356E+00  5.225007E+00
    3.6429  1.811817E+00  5.951100E+00
    3.7286  1.621616E+00  6.631908E+00
    3.8143  1.407467E+00  7.250289E+00
    3.9000  1.234703E+00  7.817419E+00
    3.9857  1.149902E+00  8.369068E+00
    4.0714  1.028588E+00  8.883970E+00
    4.1571  9.319992E-01  9.370370E+00
    4.2429  8.915973E-01  9.855071E+00
    4.3286  8.744080E-01  1.034983E+01
    4.4143  8.501238E-01  1.085008E+01
    4.5000  8.037934E-01  1.134162E+01
    4.5857  7.777858E-01  1.183554E+01
    4.6714  7.114707E-01  1.230440E+01
    4.7571  6.810360E-01  1.276982E+01
    4.8429  6.619429E-01  1.323864E+01
    4.9286  6.244260E-01  1.369669E+01
    5.0143  6.444661E-01  1.418602E+01
    5.1000  6.365241E-01  1.468598E+01
    5.1857  6.278599E-01  1.519586E+01
    5.2714  6.549772E-01  1.574548E+01
    5.3571  7.105588E-01  1.636129E+01
    5.4429  7.316155E-01  1.701581E+01
    5.5286  7.730964E-01  1.772938E+01
    5.6143  8.360795E-01  1.852521E+01
    5.7000  8.977179E-01  1.940600E+01
    5.7857  9.817337E-01  2.039840E+01
    5.8714  1.077000E+00  2.151960E+01
    5.9571  1.160543E+00  2.276331E+01
    6.0429  1.186762E+00  2.407198E+01
    6.1286  1.213782E+00  2.544868E+01
    6.2143  1.241133E+00  2.689605E+01
    6.3000  1.254184E+00  2.839927E+01
    6.3857  1.276960E+00  2.997172E+01
    6.4714  1.293750E+00  3.160789E+01
    6.5571  1.253072E+00  3.323488E+01
    6.6429  1.224500E+00  3.486661E+01
    6.7286  1.201041E+00  3.650864E+01
    6.8143  1.161757E+00  3.813770E+01
    6.9000  1.134632E+00  3.976899E+01
    6.9857  1.088773E+00  4.137348E+01
    7.0714  1.047617E+00  4.295544E+01
    7.1571  1.025948E+00  4.454246E+01
    7.2429  1.009709E+00  4.614200E+01
    7.3286  9.542715E-01  4.768971E+01
    7.4143  9.379130E-01  4.924667E+01
    7.5000  9.209202E-01  5.081098E+01
    7.5857  8.725638E-01  5.232722E+01
    7.6714  8.852693E-01  5.390050E+01
    7.7571  8.795877E-01  5.549881E+01
    7.8429  8.798416E-01  5.713310E+01
    7.9286  8.847566E-01  5.881264E+01
    8.0143  8.605808E-01  6.048181E+01
    8.1000  8.615225E-01  6.218873E+01
    8.1857  8.718352E-01  6.395284E+01
    8.2714  8.632783E-01  6.573640E+01
    8.3571  8.877622E-01  6.760876E+01
    8.4429  9.076177E-01  6.956246E+01
    8.5286  9.300070E-01  7.160522E+01
    8.6143  9.693106E-01  7.377731E+01
    8.7000  9.921442E-01  7.604503E+01
    8.7857  1.004721E+00  7.838697E+01
    8.8714  1.022244E+00  8.081648E+01
    8.9571  1.062577E+00  8.339088E+01
    9.0429  1.073771E+00  8.604243E+01
    9.1286  1.082376E+00  8.876613E+01
    9.2143  1.079896E+00  9.153487E+01
    9.3000  1.089274E+00  9.437985E+01
    9.3857  1.089647E+00  9.727850E+01
    9.4714  1.085728E+00  1.002197E+02
    9.5571  1.071770E+00  1.031759E+02
    9.6429  1.079593E+00  1.062074E+02
    9.7286  1.069550E+00  1.092642E+02
    9.8143  1.054966E+00  1.123328E+02
    9.9000  1.049841E+00  1.154400E+02
    9.9857  1.045937E+00  1.185894E+02
   10.0714  1.022330E+00  1.217209E+02
   10.1571  1.015202E+00  1.248837E+02
   10.2429  9.994467E-01  1.280502E+02
   10.3286  9.802439E-01  1.312080E+02
   10.4143  9.763556E-01  1.344058E+02
   10.5000  9.764174E-01  1.376566E+02
   10.5857  9.630847E-01  1.409155E+02
   10.6714  9.533657E-01  1.441941E+02
   10.7571  9.536660E-01  1.475265E+02
   10.8429  9.455960E-01  1.508837E+02
   10.9286  9.487823E-01  1.543056E+02
   11.0143  9.422279E-01  1.577574E+02
   11.1000  9.450359E-01  1.612735E+02
   11.1857  9.393097E-01  1.648226E+02
   11.2714  9.429905E-01  1.684404E+02
   11.3571  9.450979E-01  1.721216E+02
   11.4429  9.725575E-01  1.759671E+02
   11.5286  9.783179E-01  1.798936E+02
   11.6143  9.734052E-01  1.838587E+02
   11.7000  9.835017E-01  1.879243E+02
   11.7857  1.002696E+00  1.921302E+02
   11.8714  1.005556E+00  1.964096E+02
   11.9571  1.023368E+00  2.008280E+02

g(r)  :Cl-shl  Cl-shl  

        r      g(r)         n(r)

    2.1000  0.000000E+00  0.000000E+00
    2.1857  0.000000E+00  0.000000E+00
    2.2714  2.321205E-03  3.616898E-04
    2.3571  8.190814E-03  1.736111E-03
    2.4429  1.766059E-02  4.918981E-03
    2.5286  5.544505E-02  1.562500E-02
    2.6143  1.584114E-01  4.832176E-02
    2.7000  4.126851E-01  1.391782E-01
    2.7857  7.864754E-01  3.234954E-01
    2.8714  1.105691E+00  5.988137E-01
    2.9571  1.335617E+00  9.515336E-01
    3.0429  1.527641E+00  1.378689E+00
    3.1286  1.759799E+00  1.898872E+00
    3.2143  1.934286E+00  2.502387E+00
    3.3000  1.974568E+00  3.151765E+00
    3.3857  1.993507E+00  3.841869E+00
    3.4714  2.028664E+00  4.580150E+00
    3.5571  1.884185E+00  5.300130E+00
    3.6429  1.745662E+00  5.999711E+00
    3.7286  1.504537E+00  6.631366E+00
    3.8143  1.339881E+00  7.220052E+00
    3.9000  1.182417E+00  7.763166E+00
    3.9857  1.107380E+00  8.294416E+00
    4.0714  1.010669E+00  8.800347E+00
    4.1571  9.866107E-01  9.315249E+00
    4.2429  9.516758E-01  9.832610E+00
    4.3286  8.742162E-01  1.032726E+01
    4.4143  8.201903E-01  1.080990E+01
    4.5000  8.014276E-01  1.129999E+01
    4.5857  7.480550E-01  1.177503E+01
    4.6714  7.093302E-01  1.224248E+01
    4.7571  6.218661E-01  1.266746E+01
    4.8429  6.066873E-01  1.309715E+01
    4.9286  6.044073E-01  1.354051E+01
    5.0143  6.193620E-01  1.401078E+01
    5.1000  6.433853E-01  1.451613E+01
    5.1857  6.546276E-01  1.504774E+01
    5.2714  6.665285E-01  1.560706E+01
    5.3571  6.901093E-01  1.620515E+01
    5.4429  7.428549E-01  1.686972E+01
    5.5286  8.109107E-01  1.761820E+01
    5.6143  8.573206E-01  1.843424E+01
    5.7000  9.321491E-01  1.934881E+01
    5.7857  1.017872E+00  2.037775E+01
    5.8714  1.086693E+00  2.150904E+01
    5.9571  1.156088E+00  2.274797E+01
    6.0429  1.227565E+00  2.410163E+01
    6.1286  1.241047E+00  2.550926E+01
    6.2143  1.264984E+00  2.698445E+01
    6.3000  1.277451E+00  2.851555E+01
    6.3857  1.271702E+00  3.008152E+01
    6.4714  1.292348E+00  3.171593E+01
    6.5571  1.274048E+00  3.337015E+01
    6.6429  1.215868E+00  3.499038E+01
    6.7286  1.177840E+00  3.660069E+01
    6.8143  1.158764E+00  3.822555E+01
    6.9000  1.096494E+00  3.980201E+01
    6.9857  1.074562E+00  4.138556E+01
    7.0714  1.047665E+00  4.296759E+01
    7.1571  1.012153E+00  4.453328E+01
    7.2429  1.010759E+00  4.613448E+01
    7.3286  9.592446E-01  4.769025E+01
    7.4143  9.396343E-01  4.925007E+01
    7.5000  8.983071E-01  5.077597E+01
    7.5857  8.897774E-01  5.232212E+01
    7.6714  8.760702E-01  5.387905E+01
    7.7571  8.738153E-01  5.546687E+01
    7.8429  8.922063E-01  5.712413E+01
    7.9286  8.533188E-01  5.874400E+01
    8.0143  8.410192E-01  6.037522E+01
    8.1000  8.687334E-01  6.209643E+01
    8.1857  8.909972E-01  6.389931E+01
    8.2714  8.717864E-01  6.570045E+01
    8.3571  9.031451E-01  6.760525E+01
    8.4429  9.086258E-01  6.956113E+01
    8.5286  9.419618E-01  7.163014E+01
    8.6143  9.536541E-01  7.376714E+01
    8.7000  9.928405E-01  7.603646E+01
    8.7857  1.038951E+00  7.845819E+01
    8.8714  1.035225E+00  8.091855E+01
    8.9571  1.052082E+00  8.346752E+01
    9.0429  1.078312E+00  8.613028E+01
    9.1286  1.093774E+00  8.888267E+01
    9.2143  1.091040E+00  9.167998E+01
    9.3000  1.085092E+00  9.451403E+01
    9.3857  1.069823E+00  9.735995E+01
    9.4714  1.076049E+00  1.002750E+02
    9.5571  1.087755E+00  1.032752E+02
    9.6429  1.076206E+00  1.062972E+02
    9.7286  1.054491E+00  1.093110E+02
    9.8143  1.044857E+00  1.123501E+02
    9.9000  1.041702E+00  1.154332E+02
    9.9857  1.027716E+00  1.185279E+02
   10.0714  1.036535E+00  1.217028E+02
   10.1571  1.011568E+00  1.248543E+02
   10.2429  9.894119E-01  1.279890E+02
   10.3286  9.645929E-01  1.310964E+02
   10.4143  9.798342E-01  1.343056E+02
   10.5000  9.755266E-01  1.375534E+02
   10.5857  9.726403E-01  1.408447E+02
   10.6714  9.449411E-01  1.440943E+02
   10.7571  9.594417E-01  1.474469E+02
   10.8429  9.581064E-01  1.508485E+02
   10.9286  9.348327E-01  1.542201E+02
   11.0143  9.357018E-01  1.576479E+02
   11.1000  9.500034E-01  1.611826E+02
   11.1857  9.449576E-01  1.647530E+02
   11.2714  9.563024E-01  1.684218E+02
   11.3571  9.596396E-01  1.721596E+02
   11.4429  9.495795E-01  1.759144E+02
   11.5286  9.885552E-01  1.798819E+02
   11.6143  9.752433E-01  1.838545E+02
   11.7000  9.924700E-01  1.879572E+02
   11.7857  9.930041E-01  1.921224E+02
   11.8714  1.007238E+00  1.964090E+02
   11.9571  1.020361E+00  2.008144E+02

 time elapsed since job start =           5.065 seconds

