
                    DL_POLY Classic 1.9

                              Running on    1 nodes


 ************************************************************************************************************************
 ************************************************************************************************************************
 ************************************************************************************************************************
 ***************     WATER (20736 ATOMS)                                                                  ***************
 ************************************************************************************************************************
 ************************************************************************************************************************
 ************************************************************************************************************************


 SIMULATION CONTROL PARAMETERS


 velocity verlet integration selected

 simulation temperature           3.0746E+02

 Nose-Hoover 
 thermostat relaxation time       1.2500E-01

 simulation timestep              5.0000E-03

 selected number of timesteps        10000

 equilibration period                    0

 real space cut off               8.0000E+00

 border width of Verlet shell     1.2000E+00

 real space cut off (vdw)         8.0000E+00

 tolerance for SHAKE              1.0000E-08


 Electrostatics : Treecode approximation

 Using a Tricubic Interpolation -                            treecode

 multipole acceptance criterion for                          tree        6.0000E-01

 maximum number of particles in a                          leaf          500

 order of taylor approximation for                            treecode            4

 range of periodic images -                                  treecode            1

 data printing interval               1000

 statistics file interval              100

 data stacking interval                100

 user allocated job time (d)     11.5741

 job closure time        (s)    1000.000


SYSTEM SPECIFICATION

 energy units=kcal/ mol 


 number of molecular types               1

 molecular species type                  1


 name of species:             Water                                   

 number of molecules                  6912

 number of atoms/sites                   3


 atomic characteristics:

                      site     name          mass        charge    repeat    freeze

                         1     OW          15.99940    -0.73000         1         0
                         2     HW           1.00797     0.36500         2         0

 number of bond constraints              3


 constraint bond details:

                          index     index  bondlength

                              1         2    1.030000
                              1         3    1.030000
                              2         3    1.681982


 number of specified pair potentials         1


                atom 1  atom 2      key                              parameters


                OW      OW        lj       1.60000E-01  3.19600E+00

  *** warning - undefined atom-atom interactions set to zero ***

 configuration file name: 

          SPC water (256 molecules)                                                       


 selected image convention               3


 simulation cell vectors


                        61.851561    0.000000    0.000000
                         0.000000   61.851561    0.000000
                         0.000000    0.000000   61.851561


 system volume            236620.302009    


 link cell algorithm in use


 total degrees of freedom                     41469.
 rotational degrees of freedom                    0.
 shell pseudo degrees of freedom                  0.


 sample of starting configuration

      i       x(i)        y(i)        z(i)       vx(i)       vy(i)       vz(i)       fx(i)       fy(i)       fz(i)


      1 -1.8744E+00 -2.3427E+01  1.5373E+01  6.8577E+00 -1.6377E+00 -3.1677E+00  9.2934E+01 -4.6088E+03 -9.0703E+03
   1038 -1.3870E+01  6.9292E+00 -9.7802E+00 -1.5448E+00 -2.0652E+00 -3.9590E+00  2.3839E+03 -2.5381E+03 -2.0566E+03
   2075  1.3434E+00  2.8539E+01 -2.1639E+01  1.1630E+01 -2.8803E+00 -1.2743E+01 -8.2145E+02 -5.5624E+03  1.2796E+03
   3112 -2.8431E+01 -3.9600E+00 -1.0683E+01 -1.5608E+00 -1.4927E+00  7.8916E-01 -9.3842E+02  2.3692E+04 -7.5671E+03
   4149 -4.8875E-01  1.8290E+00  2.8105E+01  5.9936E+00  1.4774E+01 -1.6036E-01  4.0089E+03 -2.1466E+03  3.2636E+03
   5186 -2.5577E+01 -2.8074E+01 -1.4915E+01 -4.3384E+00  4.6493E+00  7.3071E-02  3.7428E+02  5.5224E+03  1.9675E+03
   6223  1.3981E-01  5.1822E+00  2.1478E+01 -1.8168E+00 -5.5344E-01  3.2266E+00  1.5885E+03 -1.7039E+03 -6.3850E+03
   7260  2.1611E+01 -2.1983E+01 -9.1575E+00 -9.1181E-01 -2.1847E+00  3.1328E+00 -3.0984E+03 -1.6471E+03  1.2886E+03
   8297 -1.3648E+01 -1.2934E+01  3.0260E+01  7.9688E+00 -6.1269E+00  1.4726E+01  2.8632E+03 -2.8435E+03 -6.0143E+01
   9334  2.3756E+01 -1.2562E+01 -1.7574E+01 -1.9585E+00 -3.6452E+00  5.6916E+00  2.2481E+03  1.2169E+04 -2.8844E+03
  10371 -2.5101E+01  3.0836E+01 -1.8249E+01  3.2907E+00  2.7287E-01  6.8692E+00 -3.2055E+03 -3.8145E+03  1.0578E+03
  11408 -1.2043E+01 -3.5667E+00 -2.9501E+01  2.0573E+01  1.8136E+01 -4.1674E+00 -3.2391E+03  1.3183E+03  5.0509E+03
  12445 -2.8056E+00 -2.6085E+01 -2.2609E+01 -3.9455E+00  9.5256E-01 -6.2050E-01 -3.1926E+03 -3.6345E+01 -7.5981E+03
  13482 -2.9292E+01  9.7879E+00  1.1469E+01 -5.9817E-01  2.7518E+01 -1.6077E+01  2.0346E+03 -3.1701E+03  1.0649E+03
  14519 -2.9984E+01 -1.9593E+01 -2.6430E+01  3.6926E+00  3.3625E+00  1.0203E+01 -1.9731E+03 -6.1639E+03  6.2519E+03
  15556  2.1419E+01 -1.1379E+01  4.7950E+00  4.1753E+00 -7.4875E-01 -1.7496E+00 -8.3426E+03 -1.5118E+03 -6.9937E+02
  16593  1.3822E+00  1.7246E+01 -2.9418E+01  2.4503E+01 -4.2570E+00 -1.9412E+00  1.9420E+03  9.7395E+02 -1.2425E+03
  17630 -1.4913E+01 -2.4550E+01  1.2094E+01  6.4381E+00 -5.0754E+00  9.2065E+00  4.9219E+02  5.5206E+03 -6.4661E+00
  18667  2.8914E+00  2.2149E+01 -7.6286E+00 -2.1009E+00 -6.5481E+00  1.5582E+00 -3.3679E+03 -3.8661E+03 -1.8822E+03
  19704  2.3379E+01  2.5522E+01 -1.4931E+01  2.7802E+00 -1.2910E+00  9.5197E-01  3.7956E+03  3.6287E+03  2.2815E+03


long range correction for: vdw energy    -0.562569E+03
                         : vdw pressure  -0.325603E+00

 time elapsed since job start =           0.091 seconds

 ------------------------------------------------------------------------------------------------------------------------

     step     eng_tot    temp_tot     eng_cfg     eng_vdw     eng_cou     eng_bnd     eng_ang     eng_dih     eng_tet
 time          eng_pv    temp_rot     vir_cfg     vir_vdw     vir_cou     vir_bnd     vir_ang     vir_con     vir_tet
 cpu time      volume    temp_shl     eng_shl     vir_shl       alpha        beta       gamma     vir_pmf       press

 ------------------------------------------------------------------------------------------------------------------------
        1 -5.8980E+04  3.0572E+02 -7.1577E+04  4.7369E+03 -7.6314E+04  0.0000E+00  0.0000E+00  0.0000E+00  0.0000E+00
   5.000f -6.7315E+04  0.0000E+00  5.0197E+04 -1.8469E+05  7.6482E+04  0.0000E+00  0.0000E+00  1.5840E+05  0.0000E+00
   8.915s  2.3662E+05  0.0000E+00  0.0000E+00  0.0000E+00  9.0000E+01  9.0000E+01  9.0000E+01  0.0000E+00 -2.4151E+00

  rolling -5.8980E+04  3.0572E+02 -7.1577E+04  4.7369E+03 -7.6314E+04  0.0000E+00  0.0000E+00  0.0000E+00  0.0000E+00
 averages -6.7315E+04  0.0000E+00  5.0197E+04 -1.8469E+05  7.6482E+04  0.0000E+00  0.0000E+00  1.5840E+05  0.0000E+00
           2.3662E+05  0.0000E+00  0.0000E+00  0.0000E+00  9.0000E+01  9.0000E+01  9.0000E+01  0.0000E+00 -2.4151E+00
 ------------------------------------------------------------------------------------------------------------------------
     1000  7.7810E+03  3.1986E+02 -6.8365E+04  4.3682E+03 -7.2733E+04  0.0000E+00  0.0000E+00  0.0000E+00  0.0000E+00
   5.000p -6.5283E+04  0.0000E+00  5.6651E+04 -1.7956E+05  7.9681E+04  0.0000E+00  0.0000E+00  1.5653E+05  0.0000E+00
   1.212h  2.3662E+05  0.0000E+00  0.0000E+00  0.0000E+00  9.0000E+01  9.0000E+01  9.0000E+01  0.0000E+00 -2.9261E+00

  rolling  3.3786E+03  3.0684E+02 -6.9232E+04  4.4310E+03 -7.3663E+04  0.0000E+00  0.0000E+00  0.0000E+00  0.0000E+00
 averages -6.4824E+04  0.0000E+00  4.9993E+04 -1.8042E+05  7.7205E+04  0.0000E+00  0.0000E+00  1.5321E+05  0.0000E+00
           2.3662E+05  0.0000E+00  0.0000E+00  0.0000E+00  9.0000E+01  9.0000E+01  9.0000E+01  0.0000E+00 -2.3865E+00
 ------------------------------------------------------------------------------------------------------------------------
     2000  7.8160E+04  3.0607E+02 -6.8298E+04  4.5956E+03 -7.2894E+04  0.0000E+00  0.0000E+00  0.0000E+00  0.0000E+00
  10.000p -6.2105E+04  0.0000E+00  4.4478E+04 -1.8289E+05  7.4374E+04  0.0000E+00  0.0000E+00  1.5299E+05  0.0000E+00
   2.419h  2.3662E+05  0.0000E+00  0.0000E+00  0.0000E+00  9.0000E+01  9.0000E+01  9.0000E+01  0.0000E+00 -1.8600E+00

  rolling  7.4520E+04  3.0669E+02 -6.8626E+04  4.5206E+03 -7.3147E+04  0.0000E+00  0.0000E+00  0.0000E+00  0.0000E+00
 averages -6.3458E+04  0.0000E+00  4.7680E+04 -1.8175E+05  7.6569E+04  0.0000E+00  0.0000E+00  1.5286E+05  0.0000E+00
           2.3662E+05  0.0000E+00  0.0000E+00  0.0000E+00  9.0000E+01  9.0000E+01  9.0000E+01  0.0000E+00 -2.1643E+00
 ------------------------------------------------------------------------------------------------------------------------
     3000  1.4949E+05  3.0363E+02 -6.8349E+04  4.5633E+03 -7.2913E+04  0.0000E+00  0.0000E+00  0.0000E+00  0.0000E+00
  15.000p -6.1547E+04  0.0000E+00  4.2147E+04 -1.8217E+05  7.1676E+04  0.0000E+00  0.0000E+00  1.5264E+05  0.0000E+00
   3.638h  2.3662E+05  0.0000E+00  0.0000E+00  0.0000E+00  9.0000E+01  9.0000E+01  9.0000E+01  0.0000E+00 -1.6542E+00

  rolling  1.4593E+05  3.1001E+02 -6.8708E+04  4.4726E+03 -7.3181E+04  0.0000E+00  0.0000E+00  0.0000E+00  0.0000E+00
 averages -6.3316E+04  0.0000E+00  4.7691E+04 -1.8088E+05  7.5208E+04  0.0000E+00  0.0000E+00  1.5336E+05  0.0000E+00
           2.3662E+05  0.0000E+00  0.0000E+00  0.0000E+00  9.0000E+01  9.0000E+01  9.0000E+01  0.0000E+00 -2.1390E+00
 ------------------------------------------------------------------------------------------------------------------------
     4000  2.1819E+05  3.1054E+02 -7.0859E+04  4.5045E+03 -7.5364E+04  0.0000E+00  0.0000E+00  0.0000E+00  0.0000E+00
  20.000p -6.6445E+04  0.0000E+00  5.0734E+04 -1.8159E+05  7.7927E+04  0.0000E+00  0.0000E+00  1.5439E+05  0.0000E+00
   4.888h  2.3662E+05  0.0000E+00  0.0000E+00  0.0000E+00  9.0000E+01  9.0000E+01  9.0000E+01  0.0000E+00 -2.4287E+00

  rolling  2.1614E+05  3.0444E+02 -6.9392E+04  4.3935E+03 -7.3786E+04  0.0000E+00  0.0000E+00  0.0000E+00  0.0000E+00
 averages -6.5676E+04  0.0000E+00  5.1570E+04 -1.7993E+05  7.7824E+04  0.0000E+00  0.0000E+00  1.5368E+05  0.0000E+00
           2.3662E+05  0.0000E+00  0.0000E+00  0.0000E+00  9.0000E+01  9.0000E+01  9.0000E+01  0.0000E+00 -2.5580E+00
 ------------------------------------------------------------------------------------------------------------------------
     5000  2.9528E+05  3.1118E+02 -6.7949E+04  4.4560E+03 -7.2405E+04  0.0000E+00  0.0000E+00  0.0000E+00  0.0000E+00
  25.000p -6.4454E+04  0.0000E+00  5.3627E+04 -1.8065E+05  8.0857E+04  0.0000E+00  0.0000E+00  1.5342E+05  0.0000E+00
   6.127h  2.3662E+05  0.0000E+00  0.0000E+00  0.0000E+00  9.0000E+01  9.0000E+01  9.0000E+01  0.0000E+00 -2.7030E+00

  rolling  2.9038E+05  3.0781E+02 -6.8924E+04  4.4042E+03 -7.3328E+04  0.0000E+00  0.0000E+00  0.0000E+00  0.0000E+00
 averages -6.4842E+04  0.0000E+00  5.1170E+04 -1.8018E+05  7.8008E+04  0.0000E+00  0.0000E+00  1.5334E+05  0.0000E+00
           2.3662E+05  0.0000E+00  0.0000E+00  0.0000E+00  9.0000E+01  9.0000E+01  9.0000E+01  0.0000E+00 -2.4925E+00
 ------------------------------------------------------------------------------------------------------------------------
     6000  3.5948E+05  3.1504E+02 -6.8598E+04  4.4311E+03 -7.3029E+04  0.0000E+00  0.0000E+00  0.0000E+00  0.0000E+00
  30.000p -6.2142E+04  0.0000E+00  4.5537E+04 -1.8032E+05  7.1916E+04  0.0000E+00  0.0000E+00  1.5394E+05  0.0000E+00
   7.325h  2.3662E+05  0.0000E+00  0.0000E+00  0.0000E+00  9.0000E+01  9.0000E+01  9.0000E+01  0.0000E+00 -1.8908E+00
