
                    DL_POLY Classic 1.9

                              Running on    1 nodes


 ************************************************************************************************************************
 ************************************************************************************************************************
 ************************************************************************************************************************
 ***************     WATER (20736 ATOMS)                                                                  ***************
 ************************************************************************************************************************
 ************************************************************************************************************************
 ************************************************************************************************************************


 SIMULATION CONTROL PARAMETERS


 velocity verlet integration selected

 simulation temperature           3.0746E+02

 Nose-Hoover 
 thermostat relaxation time       1.2500E-01

 simulation timestep              5.0000E-03

 selected number of timesteps         1000

 equilibration period                    0

 real space cut off               8.0000E+00

 border width of Verlet shell     1.2000E+00

 real space cut off (vdw)         8.0000E+00

 tolerance for SHAKE              1.0000E-08


 Electrostatics : Treecode approximation

 Using a Tricubic Interpolation -                            treecode

 multipole acceptance criterion for                          tree        6.0000E-01

 maximum number of particles in a                          leaf          500

 order of taylor approximation for                            treecode            4

 range of periodic images -                                  treecode            1

 data printing interval                  1

 statistics file interval                1

 data stacking interval                  1

 user allocated job time (d)     11.5741

 job closure time        (s)    1000.000


SYSTEM SPECIFICATION

 energy units=kcal/ mol 


 number of molecular types               1

 molecular species type                  1


 name of species:             Water                                   

 number of molecules                  6912

 number of atoms/sites                   3


 atomic characteristics:

                      site     name          mass        charge    repeat    freeze

                         1     OW          15.99940    -0.73000         1         0
                         2     HW           1.00797     0.36500         2         0

 number of bond constraints              3


 constraint bond details:

                          index     index  bondlength

                              1         2    1.030000
                              1         3    1.030000
                              2         3    1.681982


 number of specified pair potentials         1


                atom 1  atom 2      key                              parameters


                OW      OW        lj       1.60000E-01  3.19600E+00

  *** warning - undefined atom-atom interactions set to zero ***

 configuration file name: 

          SPC water (256 molecules)                                                       


 selected image convention               3


 simulation cell vectors


                        61.851561    0.000000    0.000000
                         0.000000   61.851561    0.000000
                         0.000000    0.000000   61.851561


 system volume            236620.302009    


 link cell algorithm in use


 total degrees of freedom                     41469.
 rotational degrees of freedom                    0.
 shell pseudo degrees of freedom                  0.


 sample of starting configuration

      i       x(i)        y(i)        z(i)       vx(i)       vy(i)       vz(i)       fx(i)       fy(i)       fz(i)


      1 -1.8744E+00 -2.3427E+01  1.5373E+01  6.8577E+00 -1.6377E+00 -3.1677E+00  9.2934E+01 -4.6088E+03 -9.0703E+03
   1038 -1.3870E+01  6.9292E+00 -9.7802E+00 -1.5448E+00 -2.0652E+00 -3.9590E+00  2.3839E+03 -2.5381E+03 -2.0566E+03
   2075  1.3434E+00  2.8539E+01 -2.1639E+01  1.1630E+01 -2.8803E+00 -1.2743E+01 -8.2145E+02 -5.5624E+03  1.2796E+03
   3112 -2.8431E+01 -3.9600E+00 -1.0683E+01 -1.5608E+00 -1.4927E+00  7.8916E-01 -9.3842E+02  2.3692E+04 -7.5671E+03
   4149 -4.8875E-01  1.8290E+00  2.8105E+01  5.9936E+00  1.4774E+01 -1.6036E-01  4.0089E+03 -2.1466E+03  3.2636E+03
   5186 -2.5577E+01 -2.8074E+01 -1.4915E+01 -4.3384E+00  4.6493E+00  7.3071E-02  3.7428E+02  5.5224E+03  1.9675E+03
   6223  1.3981E-01  5.1822E+00  2.1478E+01 -1.8168E+00 -5.5344E-01  3.2266E+00  1.5885E+03 -1.7039E+03 -6.3850E+03
   7260  2.1611E+01 -2.1983E+01 -9.1575E+00 -9.1181E-01 -2.1847E+00  3.1328E+00 -3.0984E+03 -1.6471E+03  1.2886E+03
   8297 -1.3648E+01 -1.2934E+01  3.0260E+01  7.9688E+00 -6.1269E+00  1.4726E+01  2.8632E+03 -2.8435E+03 -6.0143E+01
   9334  2.3756E+01 -1.2562E+01 -1.7574E+01 -1.9585E+00 -3.6452E+00  5.6916E+00  2.2481E+03  1.2169E+04 -2.8844E+03
  10371 -2.5101E+01  3.0836E+01 -1.8249E+01  3.2907E+00  2.7287E-01  6.8692E+00 -3.2055E+03 -3.8145E+03  1.0578E+03
  11408 -1.2043E+01 -3.5667E+00 -2.9501E+01  2.0573E+01  1.8136E+01 -4.1674E+00 -3.2391E+03  1.3183E+03  5.0509E+03
  12445 -2.8056E+00 -2.6085E+01 -2.2609E+01 -3.9455E+00  9.5256E-01 -6.2050E-01 -3.1926E+03 -3.6345E+01 -7.5981E+03
  13482 -2.9292E+01  9.7879E+00  1.1469E+01 -5.9817E-01  2.7518E+01 -1.6077E+01  2.0346E+03 -3.1701E+03  1.0649E+03
  14519 -2.9984E+01 -1.9593E+01 -2.6430E+01  3.6926E+00  3.3625E+00  1.0203E+01 -1.9731E+03 -6.1639E+03  6.2519E+03
  15556  2.1419E+01 -1.1379E+01  4.7950E+00  4.1753E+00 -7.4875E-01 -1.7496E+00 -8.3426E+03 -1.5118E+03 -6.9937E+02
  16593  1.3822E+00  1.7246E+01 -2.9418E+01  2.4503E+01 -4.2570E+00 -1.9412E+00  1.9420E+03  9.7395E+02 -1.2425E+03
  17630 -1.4913E+01 -2.4550E+01  1.2094E+01  6.4381E+00 -5.0754E+00  9.2065E+00  4.9219E+02  5.5206E+03 -6.4661E+00
  18667  2.8914E+00  2.2149E+01 -7.6286E+00 -2.1009E+00 -6.5481E+00  1.5582E+00 -3.3679E+03 -3.8661E+03 -1.8822E+03
  19704  2.3379E+01  2.5522E+01 -1.4931E+01  2.7802E+00 -1.2910E+00  9.5197E-01  3.7956E+03  3.6287E+03  2.2815E+03


long range correction for: vdw energy    -0.562569E+03
                         : vdw pressure  -0.325603E+00

 time elapsed since job start =           0.093 seconds

 ------------------------------------------------------------------------------------------------------------------------

     step     eng_tot    temp_tot     eng_cfg     eng_vdw     eng_cou     eng_bnd     eng_ang     eng_dih     eng_tet
 time          eng_pv    temp_rot     vir_cfg     vir_vdw     vir_cou     vir_bnd     vir_ang     vir_con     vir_tet
 cpu time      volume    temp_shl     eng_shl     vir_shl       alpha        beta       gamma     vir_pmf       press

 ------------------------------------------------------------------------------------------------------------------------
        1 -5.8980E+04  3.0572E+02 -7.1577E+04  4.7369E+03 -7.6314E+04  0.0000E+00  0.0000E+00  0.0000E+00  0.0000E+00
   5.000f -6.7315E+04  0.0000E+00  5.0197E+04 -1.8469E+05  7.6482E+04  0.0000E+00  0.0000E+00  1.5840E+05  0.0000E+00
   9.008s  2.3662E+05  0.0000E+00  0.0000E+00  0.0000E+00  9.0000E+01  9.0000E+01  9.0000E+01  0.0000E+00 -2.4151E+00

  rolling -5.8980E+04  3.0572E+02 -7.1577E+04  4.7369E+03 -7.6314E+04  0.0000E+00  0.0000E+00  0.0000E+00  0.0000E+00
 averages -6.7315E+04  0.0000E+00  5.0197E+04 -1.8469E+05  7.6482E+04  0.0000E+00  0.0000E+00  1.5840E+05  0.0000E+00
           2.3662E+05  0.0000E+00  0.0000E+00  0.0000E+00  9.0000E+01  9.0000E+01  9.0000E+01  0.0000E+00 -2.4151E+00
 ------------------------------------------------------------------------------------------------------------------------
        2 -5.8711E+04  3.0176E+02 -7.1144E+04  4.7318E+03 -7.5876E+04  0.0000E+00  0.0000E+00  0.0000E+00  0.0000E+00
  10.000f -6.6966E+04  0.0000E+00  4.9633E+04 -1.8460E+05  7.7054E+04  0.0000E+00  0.0000E+00  1.5718E+05  0.0000E+00
  13.564s  2.3662E+05  0.0000E+00  0.0000E+00  0.0000E+00  9.0000E+01  9.0000E+01  9.0000E+01  0.0000E+00 -2.3922E+00

  rolling -5.8711E+04  3.0176E+02 -7.1144E+04  4.7318E+03 -7.5876E+04  0.0000E+00  0.0000E+00  0.0000E+00  0.0000E+00
 averages -6.6966E+04  0.0000E+00  4.9633E+04 -1.8460E+05  7.7054E+04  0.0000E+00  0.0000E+00  1.5718E+05  0.0000E+00
           2.3662E+05  0.0000E+00  0.0000E+00  0.0000E+00  9.0000E+01  9.0000E+01  9.0000E+01  0.0000E+00 -2.3922E+00
 ------------------------------------------------------------------------------------------------------------------------
        3 -5.9201E+04  3.0031E+02 -7.1574E+04  4.7167E+03 -7.6290E+04  0.0000E+00  0.0000E+00  0.0000E+00  0.0000E+00
  15.000f -6.6901E+04  0.0000E+00  4.7850E+04 -1.8438E+05  7.6522E+04  0.0000E+00  0.0000E+00  1.5571E+05  0.0000E+00
  18.062s  2.3662E+05  0.0000E+00  0.0000E+00  0.0000E+00  9.0000E+01  9.0000E+01  9.0000E+01  0.0000E+00 -2.2316E+00

  rolling -5.9201E+04  3.0031E+02 -7.1574E+04  4.7167E+03 -7.6290E+04  0.0000E+00  0.0000E+00  0.0000E+00  0.0000E+00
 averages -6.6901E+04  0.0000E+00  4.7850E+04 -1.8438E+05  7.6522E+04  0.0000E+00  0.0000E+00  1.5571E+05  0.0000E+00
           2.3662E+05  0.0000E+00  0.0000E+00  0.0000E+00  9.0000E+01  9.0000E+01  9.0000E+01  0.0000E+00 -2.2316E+00
 ------------------------------------------------------------------------------------------------------------------------
        4 -5.8635E+04  3.0297E+02 -7.1116E+04  4.6947E+03 -7.5810E+04  0.0000E+00  0.0000E+00  0.0000E+00  0.0000E+00
  20.000f -6.6110E+04  0.0000E+00  4.7399E+04 -1.8409E+05  7.5255E+04  0.0000E+00  0.0000E+00  1.5623E+05  0.0000E+00
  23.873s  2.3662E+05  0.0000E+00  0.0000E+00  0.0000E+00  9.0000E+01  9.0000E+01  9.0000E+01  0.0000E+00 -2.1668E+00

  rolling -5.8635E+04  3.0297E+02 -7.1116E+04  4.6947E+03 -7.5810E+04  0.0000E+00  0.0000E+00  0.0000E+00  0.0000E+00
 averages -6.6110E+04  0.0000E+00  4.7399E+04 -1.8409E+05  7.5255E+04  0.0000E+00  0.0000E+00  1.5623E+05  0.0000E+00
           2.3662E+05  0.0000E+00  0.0000E+00  0.0000E+00  9.0000E+01  9.0000E+01  9.0000E+01  0.0000E+00 -2.1668E+00
 ------------------------------------------------------------------------------------------------------------------------
        5 -5.8307E+04  3.0627E+02 -7.0921E+04  4.6782E+03 -7.5599E+04  0.0000E+00  0.0000E+00  0.0000E+00  0.0000E+00
  25.000f -6.5852E+04  0.0000E+00  4.7890E+04 -1.8387E+05  7.5078E+04  0.0000E+00  0.0000E+00  1.5668E+05  0.0000E+00
  28.590s  2.3662E+05  0.0000E+00  0.0000E+00  0.0000E+00  9.0000E+01  9.0000E+01  9.0000E+01  0.0000E+00 -2.1880E+00

  rolling -5.8307E+04  3.0627E+02 -7.0921E+04  4.6782E+03 -7.5599E+04  0.0000E+00  0.0000E+00  0.0000E+00  0.0000E+00
 averages -6.5852E+04  0.0000E+00  4.7890E+04 -1.8387E+05  7.5078E+04  0.0000E+00  0.0000E+00  1.5668E+05  0.0000E+00
           2.3662E+05  0.0000E+00  0.0000E+00  0.0000E+00  9.0000E+01  9.0000E+01  9.0000E+01  0.0000E+00 -2.1880E+00
 ------------------------------------------------------------------------------------------------------------------------
        6 -5.8206E+04  3.0748E+02 -7.0867E+04  4.6816E+03 -7.5549E+04  0.0000E+00  0.0000E+00  0.0000E+00  0.0000E+00
  30.000f -6.6842E+04  0.0000E+00  5.1270E+04 -1.8391E+05  7.7045E+04  0.0000E+00  0.0000E+00  1.5814E+05  0.0000E+00
  33.771s  2.3662E+05  0.0000E+00  0.0000E+00  0.0000E+00  9.0000E+01  9.0000E+01  9.0000E+01  0.0000E+00 -2.5048E+00

  rolling -5.8206E+04  3.0748E+02 -7.0867E+04  4.6816E+03 -7.5549E+04  0.0000E+00  0.0000E+00  0.0000E+00  0.0000E+00
 averages -6.6842E+04  0.0000E+00  5.1270E+04 -1.8391E+05  7.7045E+04  0.0000E+00  0.0000E+00  1.5814E+05  0.0000E+00
           2.3662E+05  0.0000E+00  0.0000E+00  0.0000E+00  9.0000E+01  9.0000E+01  9.0000E+01  0.0000E+00 -2.5048E+00
 ------------------------------------------------------------------------------------------------------------------------
        7 -5.7971E+04  3.0705E+02 -7.0612E+04  4.7098E+03 -7.5321E+04  0.0000E+00  0.0000E+00  0.0000E+00  0.0000E+00
  35.000f -6.6445E+04  0.0000E+00  5.0760E+04 -1.8428E+05  7.6580E+04  0.0000E+00  0.0000E+00  1.5846E+05  0.0000E+00
  38.358s  2.3662E+05  0.0000E+00  0.0000E+00  0.0000E+00  9.0000E+01  9.0000E+01  9.0000E+01  0.0000E+00 -2.4589E+00

  rolling -5.7971E+04  3.0705E+02 -7.0612E+04  4.7098E+03 -7.5321E+04  0.0000E+00  0.0000E+00  0.0000E+00  0.0000E+00
 averages -6.6445E+04  0.0000E+00  5.0760E+04 -1.8428E+05  7.6580E+04  0.0000E+00  0.0000E+00  1.5846E+05  0.0000E+00
           2.3662E+05  0.0000E+00  0.0000E+00  0.0000E+00  9.0000E+01  9.0000E+01  9.0000E+01  0.0000E+00 -2.4589E+00
 ------------------------------------------------------------------------------------------------------------------------
        8 -5.8111E+04  3.0687E+02 -7.0742E+04  4.7515E+03 -7.5493E+04  0.0000E+00  0.0000E+00  0.0000E+00  0.0000E+00
  40.000f -6.6641E+04  0.0000E+00  5.0917E+04 -1.8483E+05  7.7475E+04  0.0000E+00  0.0000E+00  1.5827E+05  0.0000E+00
  43.137s  2.3662E+05  0.0000E+00  0.0000E+00  0.0000E+00  9.0000E+01  9.0000E+01  9.0000E+01  0.0000E+00 -2.4756E+00

  rolling -5.8111E+04  3.0687E+02 -7.0742E+04  4.7515E+03 -7.5493E+04  0.0000E+00  0.0000E+00  0.0000E+00  0.0000E+00
 averages -6.6641E+04  0.0000E+00  5.0917E+04 -1.8483E+05  7.7475E+04  0.0000E+00  0.0000E+00  1.5827E+05  0.0000E+00
           2.3662E+05  0.0000E+00  0.0000E+00  0.0000E+00  9.0000E+01  9.0000E+01  9.0000E+01  0.0000E+00 -2.4756E+00
 ------------------------------------------------------------------------------------------------------------------------
 ------------------------------------------------------------------------------------------------------------------------

     step     eng_tot    temp_tot     eng_cfg     eng_vdw     eng_cou     eng_bnd     eng_ang     eng_dih     eng_tet
 time          eng_pv    temp_rot     vir_cfg     vir_vdw     vir_cou     vir_bnd     vir_ang     vir_con     vir_tet
 cpu time      volume    temp_shl     eng_shl     vir_shl       alpha        beta       gamma     vir_pmf       press

 ------------------------------------------------------------------------------------------------------------------------
        9 -5.9511E+04  3.0737E+02 -7.2159E+04  4.7905E+03 -7.6949E+04  0.0000E+00  0.0000E+00  0.0000E+00  0.0000E+00
  45.000f -6.9469E+04  0.0000E+00  5.5253E+04 -1.8535E+05  8.1552E+04  0.0000E+00  0.0000E+00  1.5905E+05  0.0000E+00
  47.911s  2.3662E+05  0.0000E+00  0.0000E+00  0.0000E+00  9.0000E+01  9.0000E+01  9.0000E+01  0.0000E+00 -2.8904E+00

  rolling -5.9511E+04  3.0737E+02 -7.2159E+04  4.7905E+03 -7.6949E+04  0.0000E+00  0.0000E+00  0.0000E+00  0.0000E+00
 averages -6.9469E+04  0.0000E+00  5.5253E+04 -1.8535E+05  8.1552E+04  0.0000E+00  0.0000E+00  1.5905E+05  0.0000E+00
           2.3662E+05  0.0000E+00  0.0000E+00  0.0000E+00  9.0000E+01  9.0000E+01  9.0000E+01  0.0000E+00 -2.8904E+00
 ------------------------------------------------------------------------------------------------------------------------
       10 -5.9431E+04  3.0679E+02 -7.2053E+04  4.8219E+03 -7.6875E+04  0.0000E+00  0.0000E+00  0.0000E+00  0.0000E+00
  50.000f -6.8713E+04  0.0000E+00  5.3184E+04 -1.8578E+05  8.1749E+04  0.0000E+00  0.0000E+00  1.5721E+05  0.0000E+00
  52.767s  2.3662E+05  0.0000E+00  0.0000E+00  0.0000E+00  9.0000E+01  9.0000E+01  9.0000E+01  0.0000E+00 -2.6952E+00

  rolling -5.9431E+04  3.0679E+02 -7.2053E+04  4.8219E+03 -7.6875E+04  0.0000E+00  0.0000E+00  0.0000E+00  0.0000E+00
 averages -6.8713E+04  0.0000E+00  5.3184E+04 -1.8578E+05  8.1749E+04  0.0000E+00  0.0000E+00  1.5721E+05  0.0000E+00
           2.3662E+05  0.0000E+00  0.0000E+00  0.0000E+00  9.0000E+01  9.0000E+01  9.0000E+01  0.0000E+00 -2.6952E+00
 ------------------------------------------------------------------------------------------------------------------------
       11 -5.9537E+04  3.0569E+02 -7.2110E+04  4.8472E+03 -7.6957E+04  0.0000E+00  0.0000E+00  0.0000E+00  0.0000E+00
  55.000f -6.8372E+04  0.0000E+00  5.1764E+04 -1.8612E+05  7.9656E+04  0.0000E+00  0.0000E+00  1.5823E+05  0.0000E+00
  57.400s  2.3662E+05  0.0000E+00  0.0000E+00  0.0000E+00  9.0000E+01  9.0000E+01  9.0000E+01  0.0000E+00 -2.5668E+00

  rolling -5.9537E+04  3.0569E+02 -7.2110E+04  4.8472E+03 -7.6957E+04  0.0000E+00  0.0000E+00  0.0000E+00  0.0000E+00
 averages -6.8372E+04  0.0000E+00  5.1764E+04 -1.8612E+05  7.9656E+04  0.0000E+00  0.0000E+00  1.5823E+05  0.0000E+00
           2.3662E+05  0.0000E+00  0.0000E+00  0.0000E+00  9.0000E+01  9.0000E+01  9.0000E+01  0.0000E+00 -2.5668E+00
 ------------------------------------------------------------------------------------------------------------------------
       12 -5.9294E+04  3.0450E+02 -7.1816E+04  4.8663E+03 -7.6682E+04  0.0000E+00  0.0000E+00  0.0000E+00  0.0000E+00
  60.000f -6.8239E+04  0.0000E+00  5.2004E+04 -1.8638E+05  8.0344E+04  0.0000E+00  0.0000E+00  1.5804E+05  0.0000E+00
   1.050m  2.3662E+05  0.0000E+00  0.0000E+00  0.0000E+00  9.0000E+01  9.0000E+01  9.0000E+01  0.0000E+00 -2.5994E+00

  rolling -5.9294E+04  3.0450E+02 -7.1816E+04  4.8663E+03 -7.6682E+04  0.0000E+00  0.0000E+00  0.0000E+00  0.0000E+00
 averages -6.8239E+04  0.0000E+00  5.2004E+04 -1.8638E+05  8.0344E+04  0.0000E+00  0.0000E+00  1.5804E+05  0.0000E+00
           2.3662E+05  0.0000E+00  0.0000E+00  0.0000E+00  9.0000E+01  9.0000E+01  9.0000E+01  0.0000E+00 -2.5994E+00
 ------------------------------------------------------------------------------------------------------------------------
       13 -5.8898E+04  3.0427E+02 -7.1406E+04  4.8797E+03 -7.6286E+04  0.0000E+00  0.0000E+00  0.0000E+00  0.0000E+00
  65.000f -6.8609E+04  0.0000E+00  5.4294E+04 -1.8656E+05  8.2521E+04  0.0000E+00  0.0000E+00  1.5833E+05  0.0000E+00
   1.139m  2.3662E+05  0.0000E+00  0.0000E+00  0.0000E+00  9.0000E+01  9.0000E+01  9.0000E+01  0.0000E+00 -2.8225E+00

  rolling -5.8898E+04  3.0427E+02 -7.1406E+04  4.8797E+03 -7.6286E+04  0.0000E+00  0.0000E+00  0.0000E+00  0.0000E+00
 averages -6.8609E+04  0.0000E+00  5.4294E+04 -1.8656E+05  8.2521E+04  0.0000E+00  0.0000E+00  1.5833E+05  0.0000E+00
           2.3662E+05  0.0000E+00  0.0000E+00  0.0000E+00  9.0000E+01  9.0000E+01  9.0000E+01  0.0000E+00 -2.8225E+00
 ------------------------------------------------------------------------------------------------------------------------
       14 -5.8092E+04  3.0592E+02 -7.0665E+04  4.8842E+03 -7.5549E+04  0.0000E+00  0.0000E+00  0.0000E+00  0.0000E+00
  70.000f -6.7038E+04  0.0000E+00  5.2145E+04 -1.8661E+05  8.0447E+04  0.0000E+00  0.0000E+00  1.5831E+05  0.0000E+00
   1.218m  2.3662E+05  0.0000E+00  0.0000E+00  0.0000E+00  9.0000E+01  9.0000E+01  9.0000E+01  0.0000E+00 -2.6018E+00

  rolling -5.8092E+04  3.0592E+02 -7.0665E+04  4.8842E+03 -7.5549E+04  0.0000E+00  0.0000E+00  0.0000E+00  0.0000E+00
 averages -6.7038E+04  0.0000E+00  5.2145E+04 -1.8661E+05  8.0447E+04  0.0000E+00  0.0000E+00  1.5831E+05  0.0000E+00
           2.3662E+05  0.0000E+00  0.0000E+00  0.0000E+00  9.0000E+01  9.0000E+01  9.0000E+01  0.0000E+00 -2.6018E+00
 ------------------------------------------------------------------------------------------------------------------------
       15 -5.7776E+04  3.0857E+02 -7.0453E+04  4.8737E+03 -7.5327E+04  0.0000E+00  0.0000E+00  0.0000E+00  0.0000E+00
  75.000f -6.7130E+04  0.0000E+00  5.3602E+04 -1.8648E+05  8.1157E+04  0.0000E+00  0.0000E+00  1.5892E+05  0.0000E+00
   1.299m  2.3662E+05  0.0000E+00  0.0000E+00  0.0000E+00  9.0000E+01  9.0000E+01  9.0000E+01  0.0000E+00 -2.7214E+00

  rolling -5.7776E+04  3.0857E+02 -7.0453E+04  4.8737E+03 -7.5327E+04  0.0000E+00  0.0000E+00  0.0000E+00  0.0000E+00
 averages -6.7130E+04  0.0000E+00  5.3602E+04 -1.8648E+05  8.1157E+04  0.0000E+00  0.0000E+00  1.5892E+05  0.0000E+00
           2.3662E+05  0.0000E+00  0.0000E+00  0.0000E+00  9.0000E+01  9.0000E+01  9.0000E+01  0.0000E+00 -2.7214E+00
 ------------------------------------------------------------------------------------------------------------------------
       16 -5.7826E+04  3.1170E+02 -7.0628E+04  4.8465E+03 -7.5475E+04  0.0000E+00  0.0000E+00  0.0000E+00  0.0000E+00
  80.000f -6.8369E+04  0.0000E+00  5.7438E+04 -1.8612E+05  8.3895E+04  0.0000E+00  0.0000E+00  1.5967E+05  0.0000E+00
   1.381m  2.3662E+05  0.0000E+00  0.0000E+00  0.0000E+00  9.0000E+01  9.0000E+01  9.0000E+01  0.0000E+00 -3.0670E+00

  rolling -5.7826E+04  3.1170E+02 -7.0628E+04  4.8465E+03 -7.5475E+04  0.0000E+00  0.0000E+00  0.0000E+00  0.0000E+00
 averages -6.8369E+04  0.0000E+00  5.7438E+04 -1.8612E+05  8.3895E+04  0.0000E+00  0.0000E+00  1.5967E+05  0.0000E+00
           2.3662E+05  0.0000E+00  0.0000E+00  0.0000E+00  9.0000E+01  9.0000E+01  9.0000E+01  0.0000E+00 -3.0670E+00
 ------------------------------------------------------------------------------------------------------------------------
 ------------------------------------------------------------------------------------------------------------------------

     step     eng_tot    temp_tot     eng_cfg     eng_vdw     eng_cou     eng_bnd     eng_ang     eng_dih     eng_tet
 time          eng_pv    temp_rot     vir_cfg     vir_vdw     vir_cou     vir_bnd     vir_ang     vir_con     vir_tet
 cpu time      volume    temp_shl     eng_shl     vir_shl       alpha        beta       gamma     vir_pmf       press

 ------------------------------------------------------------------------------------------------------------------------
       17 -5.7512E+04  3.1465E+02 -7.0432E+04  4.8102E+03 -7.5242E+04  0.0000E+00  0.0000E+00  0.0000E+00  0.0000E+00
  85.000f -6.8129E+04  0.0000E+00  5.7916E+04 -1.8565E+05  8.3456E+04  0.0000E+00  0.0000E+00  1.6011E+05  0.0000E+00
   1.456m  2.3662E+05  0.0000E+00  0.0000E+00  0.0000E+00  9.0000E+01  9.0000E+01  9.0000E+01  0.0000E+00 -3.0897E+00

  rolling -5.7512E+04  3.1465E+02 -7.0432E+04  4.8102E+03 -7.5242E+04  0.0000E+00  0.0000E+00  0.0000E+00  0.0000E+00
 averages -6.8129E+04  0.0000E+00  5.7916E+04 -1.8565E+05  8.3456E+04  0.0000E+00  0.0000E+00  1.6011E+05  0.0000E+00
           2.3662E+05  0.0000E+00  0.0000E+00  0.0000E+00  9.0000E+01  9.0000E+01  9.0000E+01  0.0000E+00 -3.0897E+00
 ------------------------------------------------------------------------------------------------------------------------
       18 -5.7662E+04  3.1640E+02 -7.0652E+04  4.7791E+03 -7.5431E+04  0.0000E+00  0.0000E+00  0.0000E+00  0.0000E+00
  90.000f -6.7997E+04  0.0000E+00  5.7219E+04 -1.8525E+05  8.2546E+04  0.0000E+00  0.0000E+00  1.5993E+05  0.0000E+00
   1.532m  2.3662E+05  0.0000E+00  0.0000E+00  0.0000E+00  9.0000E+01  9.0000E+01  9.0000E+01  0.0000E+00 -3.0085E+00

  rolling -5.7662E+04  3.1640E+02 -7.0652E+04  4.7791E+03 -7.5431E+04  0.0000E+00  0.0000E+00  0.0000E+00  0.0000E+00
 averages -6.7997E+04  0.0000E+00  5.7219E+04 -1.8525E+05  8.2546E+04  0.0000E+00  0.0000E+00  1.5993E+05  0.0000E+00
           2.3662E+05  0.0000E+00  0.0000E+00  0.0000E+00  9.0000E+01  9.0000E+01  9.0000E+01  0.0000E+00 -3.0085E+00
 ------------------------------------------------------------------------------------------------------------------------
       19 -5.7494E+04  3.1600E+02 -7.0467E+04  4.7645E+03 -7.5231E+04  0.0000E+00  0.0000E+00  0.0000E+00  0.0000E+00
  95.000f -6.6510E+04  0.0000E+00  5.3233E+04 -1.8506E+05  7.9303E+04  0.0000E+00  0.0000E+00  1.5899E+05  0.0000E+00
   1.606m  2.3662E+05  0.0000E+00  0.0000E+00  0.0000E+00  9.0000E+01  9.0000E+01  9.0000E+01  0.0000E+00 -2.6266E+00

  rolling -5.7494E+04  3.1600E+02 -7.0467E+04  4.7645E+03 -7.5231E+04  0.0000E+00  0.0000E+00  0.0000E+00  0.0000E+00
 averages -6.6510E+04  0.0000E+00  5.3233E+04 -1.8506E+05  7.9303E+04  0.0000E+00  0.0000E+00  1.5899E+05  0.0000E+00
           2.3662E+05  0.0000E+00  0.0000E+00  0.0000E+00  9.0000E+01  9.0000E+01  9.0000E+01  0.0000E+00 -2.6266E+00
 ------------------------------------------------------------------------------------------------------------------------
       20 -5.7004E+04  3.1449E+02 -6.9914E+04  4.7657E+03 -7.4680E+04  0.0000E+00  0.0000E+00  0.0000E+00  0.0000E+00
 100.000f -6.5884E+04  0.0000E+00  5.2700E+04 -1.8508E+05  7.9053E+04  0.0000E+00  0.0000E+00  1.5872E+05  0.0000E+00
   1.682m  2.3662E+05  0.0000E+00  0.0000E+00  0.0000E+00  9.0000E+01  9.0000E+01  9.0000E+01  0.0000E+00 -2.5871E+00

  rolling -5.7004E+04  3.1449E+02 -6.9914E+04  4.7657E+03 -7.4680E+04  0.0000E+00  0.0000E+00  0.0000E+00  0.0000E+00
 averages -6.5884E+04  0.0000E+00  5.2700E+04 -1.8508E+05  7.9053E+04  0.0000E+00  0.0000E+00  1.5872E+05  0.0000E+00
           2.3662E+05  0.0000E+00  0.0000E+00  0.0000E+00  9.0000E+01  9.0000E+01  9.0000E+01  0.0000E+00 -2.5871E+00
 ------------------------------------------------------------------------------------------------------------------------
       21 -5.5858E+04  3.1318E+02 -6.8715E+04  4.7772E+03 -7.3492E+04  0.0000E+00  0.0000E+00  0.0000E+00  0.0000E+00
 105.000f -6.5889E+04  0.0000E+00  5.6045E+04 -1.8522E+05  8.3370E+04  0.0000E+00  0.0000E+00  1.5790E+05  0.0000E+00
   1.755m  2.3662E+05  0.0000E+00  0.0000E+00  0.0000E+00  9.0000E+01  9.0000E+01  9.0000E+01  0.0000E+00 -2.9207E+00

  rolling -5.5858E+04  3.1318E+02 -6.8715E+04  4.7772E+03 -7.3492E+04  0.0000E+00  0.0000E+00  0.0000E+00  0.0000E+00
 averages -6.5889E+04  0.0000E+00  5.6045E+04 -1.8522E+05  8.3370E+04  0.0000E+00  0.0000E+00  1.5790E+05  0.0000E+00
           2.3662E+05  0.0000E+00  0.0000E+00  0.0000E+00  9.0000E+01  9.0000E+01  9.0000E+01  0.0000E+00 -2.9207E+00
 ------------------------------------------------------------------------------------------------------------------------
       22 -5.6156E+04  3.1407E+02 -6.9051E+04  4.7968E+03 -7.3848E+04  0.0000E+00  0.0000E+00  0.0000E+00  0.0000E+00
 110.000f -6.7236E+04  0.0000E+00  5.9259E+04 -1.8548E+05  8.5754E+04  0.0000E+00  0.0000E+00  1.5898E+05  0.0000E+00
   1.830m  2.3662E+05  0.0000E+00  0.0000E+00  0.0000E+00  9.0000E+01  9.0000E+01  9.0000E+01  0.0000E+00 -3.2240E+00

  rolling -5.6156E+04  3.1407E+02 -6.9051E+04  4.7968E+03 -7.3848E+04  0.0000E+00  0.0000E+00  0.0000E+00  0.0000E+00
 averages -6.7236E+04  0.0000E+00  5.9259E+04 -1.8548E+05  8.5754E+04  0.0000E+00  0.0000E+00  1.5898E+05  0.0000E+00
           2.3662E+05  0.0000E+00  0.0000E+00  0.0000E+00  9.0000E+01  9.0000E+01  9.0000E+01  0.0000E+00 -3.2240E+00
 ------------------------------------------------------------------------------------------------------------------------
       23 -5.6902E+04  3.1592E+02 -6.9875E+04  4.8253E+03 -7.4701E+04  0.0000E+00  0.0000E+00  0.0000E+00  0.0000E+00
 115.000f -6.6837E+04  0.0000E+00  5.5971E+04 -1.8585E+05  8.2767E+04  0.0000E+00  0.0000E+00  1.5905E+05  0.0000E+00
   1.904m  2.3662E+05  0.0000E+00  0.0000E+00  0.0000E+00  9.0000E+01  9.0000E+01  9.0000E+01  0.0000E+00 -2.8916E+00

  rolling -5.6902E+04  3.1592E+02 -6.9875E+04  4.8253E+03 -7.4701E+04  0.0000E+00  0.0000E+00  0.0000E+00  0.0000E+00
 averages -6.6837E+04  0.0000E+00  5.5971E+04 -1.8585E+05  8.2767E+04  0.0000E+00  0.0000E+00  1.5905E+05  0.0000E+00
           2.3662E+05  0.0000E+00  0.0000E+00  0.0000E+00  9.0000E+01  9.0000E+01  9.0000E+01  0.0000E+00 -2.8916E+00
 ------------------------------------------------------------------------------------------------------------------------
       24 -5.7138E+04  3.1677E+02 -7.0151E+04  4.8560E+03 -7.5006E+04  0.0000E+00  0.0000E+00  0.0000E+00  0.0000E+00
 120.000f -6.6388E+04  0.0000E+00  5.3974E+04 -1.8625E+05  8.0830E+04  0.0000E+00  0.0000E+00  1.5940E+05  0.0000E+00
   1.980m  2.3662E+05  0.0000E+00  0.0000E+00  0.0000E+00  9.0000E+01  9.0000E+01  9.0000E+01  0.0000E+00 -2.6920E+00

  rolling -5.7138E+04  3.1677E+02 -7.0151E+04  4.8560E+03 -7.5006E+04  0.0000E+00  0.0000E+00  0.0000E+00  0.0000E+00
 averages -6.6388E+04  0.0000E+00  5.3974E+04 -1.8625E+05  8.0830E+04  0.0000E+00  0.0000E+00  1.5940E+05  0.0000E+00
           2.3662E+05  0.0000E+00  0.0000E+00  0.0000E+00  9.0000E+01  9.0000E+01  9.0000E+01  0.0000E+00 -2.6920E+00
 ------------------------------------------------------------------------------------------------------------------------
 ------------------------------------------------------------------------------------------------------------------------

     step     eng_tot    temp_tot     eng_cfg     eng_vdw     eng_cou     eng_bnd     eng_ang     eng_dih     eng_tet
 time          eng_pv    temp_rot     vir_cfg     vir_vdw     vir_cou     vir_bnd     vir_ang     vir_con     vir_tet
 cpu time      volume    temp_shl     eng_shl     vir_shl       alpha        beta       gamma     vir_pmf       press

 ------------------------------------------------------------------------------------------------------------------------
       25 -5.7927E+04  3.1711E+02 -7.0958E+04  4.8801E+03 -7.5838E+04  0.0000E+00  0.0000E+00  0.0000E+00  0.0000E+00
 125.000f -6.5121E+04  0.0000E+00  4.7821E+04 -1.8658E+05  7.5904E+04  0.0000E+00  0.0000E+00  1.5849E+05  0.0000E+00
   2.056m  2.3662E+05  0.0000E+00  0.0000E+00  0.0000E+00  9.0000E+01  9.0000E+01  9.0000E+01  0.0000E+00 -2.0950E+00

  rolling -5.7927E+04  3.1711E+02 -7.0958E+04  4.8801E+03 -7.5838E+04  0.0000E+00  0.0000E+00  0.0000E+00  0.0000E+00
 averages -6.5121E+04  0.0000E+00  4.7821E+04 -1.8658E+05  7.5904E+04  0.0000E+00  0.0000E+00  1.5849E+05  0.0000E+00
           2.3662E+05  0.0000E+00  0.0000E+00  0.0000E+00  9.0000E+01  9.0000E+01  9.0000E+01  0.0000E+00 -2.0950E+00
 ------------------------------------------------------------------------------------------------------------------------
       26 -5.6694E+04  3.1814E+02 -6.9774E+04  4.8974E+03 -7.4671E+04  0.0000E+00  0.0000E+00  0.0000E+00  0.0000E+00
 130.000f -6.5282E+04  0.0000E+00  5.2067E+04 -1.8681E+05  8.0331E+04  0.0000E+00  0.0000E+00  1.5855E+05  0.0000E+00
   2.135m  2.3662E+05  0.0000E+00  0.0000E+00  0.0000E+00  9.0000E+01  9.0000E+01  9.0000E+01  0.0000E+00 -2.4969E+00

  rolling -5.6694E+04  3.1814E+02 -6.9774E+04  4.8974E+03 -7.4671E+04  0.0000E+00  0.0000E+00  0.0000E+00  0.0000E+00
 averages -6.5282E+04  0.0000E+00  5.2067E+04 -1.8681E+05  8.0331E+04  0.0000E+00  0.0000E+00  1.5855E+05  0.0000E+00
           2.3662E+05  0.0000E+00  0.0000E+00  0.0000E+00  9.0000E+01  9.0000E+01  9.0000E+01  0.0000E+00 -2.4969E+00
 ------------------------------------------------------------------------------------------------------------------------
       27 -5.6293E+04  3.1915E+02 -6.9422E+04  4.9099E+03 -7.4332E+04  0.0000E+00  0.0000E+00  0.0000E+00  0.0000E+00
 135.000f -6.5554E+04  0.0000E+00  5.4149E+04 -1.8698E+05  8.0859E+04  0.0000E+00  0.0000E+00  1.6027E+05  0.0000E+00
   2.212m  2.3662E+05  0.0000E+00  0.0000E+00  0.0000E+00  9.0000E+01  9.0000E+01  9.0000E+01  0.0000E+00 -2.6900E+00

  rolling -5.6293E+04  3.1915E+02 -6.9422E+04  4.9099E+03 -7.4332E+04  0.0000E+00  0.0000E+00  0.0000E+00  0.0000E+00
 averages -6.5554E+04  0.0000E+00  5.4149E+04 -1.8698E+05  8.0859E+04  0.0000E+00  0.0000E+00  1.6027E+05  0.0000E+00
           2.3662E+05  0.0000E+00  0.0000E+00  0.0000E+00  9.0000E+01  9.0000E+01  9.0000E+01  0.0000E+00 -2.6900E+00
 ------------------------------------------------------------------------------------------------------------------------
       28 -5.6848E+04  3.1955E+02 -7.0002E+04  4.9127E+03 -7.4915E+04  0.0000E+00  0.0000E+00  0.0000E+00  0.0000E+00
 140.000f -6.6475E+04  0.0000E+00  5.5250E+04 -1.8702E+05  8.1624E+04  0.0000E+00  0.0000E+00  1.6064E+05  0.0000E+00
   2.291m  2.3662E+05  0.0000E+00  0.0000E+00  0.0000E+00  9.0000E+01  9.0000E+01  9.0000E+01  0.0000E+00 -2.7932E+00

  rolling -5.6848E+04  3.1955E+02 -7.0002E+04  4.9127E+03 -7.4915E+04  0.0000E+00  0.0000E+00  0.0000E+00  0.0000E+00
 averages -6.6475E+04  0.0000E+00  5.5250E+04 -1.8702E+05  8.1624E+04  0.0000E+00  0.0000E+00  1.6064E+05  0.0000E+00
           2.3662E+05  0.0000E+00  0.0000E+00  0.0000E+00  9.0000E+01  9.0000E+01  9.0000E+01  0.0000E+00 -2.7932E+00
 ------------------------------------------------------------------------------------------------------------------------
       29 -5.6365E+04  3.1918E+02 -6.9516E+04  4.9023E+03 -7.4418E+04  0.0000E+00  0.0000E+00  0.0000E+00  0.0000E+00
 145.000f -6.4511E+04  0.0000E+00  5.0744E+04 -1.8688E+05  7.7383E+04  0.0000E+00  0.0000E+00  1.6024E+05  0.0000E+00
   2.364m  2.3662E+05  0.0000E+00  0.0000E+00  0.0000E+00  9.0000E+01  9.0000E+01  9.0000E+01  0.0000E+00 -2.3609E+00

  rolling -5.6365E+04  3.1918E+02 -6.9516E+04  4.9023E+03 -7.4418E+04  0.0000E+00  0.0000E+00  0.0000E+00  0.0000E+00
 averages -6.4511E+04  0.0000E+00  5.0744E+04 -1.8688E+05  7.7383E+04  0.0000E+00  0.0000E+00  1.6024E+05  0.0000E+00
           2.3662E+05  0.0000E+00  0.0000E+00  0.0000E+00  9.0000E+01  9.0000E+01  9.0000E+01  0.0000E+00 -2.3609E+00
 ------------------------------------------------------------------------------------------------------------------------
       30 -5.6467E+04  3.1870E+02 -6.9610E+04  4.8809E+03 -7.4491E+04  0.0000E+00  0.0000E+00  0.0000E+00  0.0000E+00
 150.000f -6.5073E+04  0.0000E+00  5.2046E+04 -1.8659E+05  7.9825E+04  0.0000E+00  0.0000E+00  1.5881E+05  0.0000E+00
   2.440m  2.3662E+05  0.0000E+00  0.0000E+00  0.0000E+00  9.0000E+01  9.0000E+01  9.0000E+01  0.0000E+00 -2.4904E+00

  rolling -5.6467E+04  3.1870E+02 -6.9610E+04  4.8809E+03 -7.4491E+04  0.0000E+00  0.0000E+00  0.0000E+00  0.0000E+00
 averages -6.5073E+04  0.0000E+00  5.2046E+04 -1.8659E+05  7.9825E+04  0.0000E+00  0.0000E+00  1.5881E+05  0.0000E+00
           2.3662E+05  0.0000E+00  0.0000E+00  0.0000E+00  9.0000E+01  9.0000E+01  9.0000E+01  0.0000E+00 -2.4904E+00
 ------------------------------------------------------------------------------------------------------------------------
       31 -5.5817E+04  3.1855E+02 -6.8968E+04  4.8505E+03 -7.3818E+04  0.0000E+00  0.0000E+00  0.0000E+00  0.0000E+00
 155.000f -6.3997E+04  0.0000E+00  5.0717E+04 -1.8618E+05  7.8750E+04  0.0000E+00  0.0000E+00  1.5814E+05  0.0000E+00
   2.512m  2.3662E+05  0.0000E+00  0.0000E+00  0.0000E+00  9.0000E+01  9.0000E+01  9.0000E+01  0.0000E+00 -2.3632E+00

  rolling -5.5817E+04  3.1855E+02 -6.8968E+04  4.8505E+03 -7.3818E+04  0.0000E+00  0.0000E+00  0.0000E+00  0.0000E+00
 averages -6.3997E+04  0.0000E+00  5.0717E+04 -1.8618E+05  7.8750E+04  0.0000E+00  0.0000E+00  1.5814E+05  0.0000E+00
           2.3662E+05  0.0000E+00  0.0000E+00  0.0000E+00  9.0000E+01  9.0000E+01  9.0000E+01  0.0000E+00 -2.3632E+00
 ------------------------------------------------------------------------------------------------------------------------
       32 -5.5199E+04  3.1929E+02 -6.8396E+04  4.8108E+03 -7.3207E+04  0.0000E+00  0.0000E+00  0.0000E+00  0.0000E+00
 160.000f -6.5609E+04  0.0000E+00  5.7419E+04 -1.8564E+05  8.5144E+04  0.0000E+00  0.0000E+00  1.5792E+05  0.0000E+00
   2.589m  2.3662E+05  0.0000E+00  0.0000E+00  0.0000E+00  9.0000E+01  9.0000E+01  9.0000E+01  0.0000E+00 -3.0047E+00

  rolling -5.5199E+04  3.1929E+02 -6.8396E+04  4.8108E+03 -7.3207E+04  0.0000E+00  0.0000E+00  0.0000E+00  0.0000E+00
 averages -6.5609E+04  0.0000E+00  5.7419E+04 -1.8564E+05  8.5144E+04  0.0000E+00  0.0000E+00  1.5792E+05  0.0000E+00
           2.3662E+05  0.0000E+00  0.0000E+00  0.0000E+00  9.0000E+01  9.0000E+01  9.0000E+01  0.0000E+00 -3.0047E+00
 ------------------------------------------------------------------------------------------------------------------------
 ------------------------------------------------------------------------------------------------------------------------

     step     eng_tot    temp_tot     eng_cfg     eng_vdw     eng_cou     eng_bnd     eng_ang     eng_dih     eng_tet
 time          eng_pv    temp_rot     vir_cfg     vir_vdw     vir_cou     vir_bnd     vir_ang     vir_con     vir_tet
 cpu time      volume    temp_shl     eng_shl     vir_shl       alpha        beta       gamma     vir_pmf       press

 ------------------------------------------------------------------------------------------------------------------------
       33 -5.4437E+04  3.2236E+02 -6.7777E+04  4.7624E+03 -7.2540E+04  0.0000E+00  0.0000E+00  0.0000E+00  0.0000E+00
 165.000f -6.6752E+04  0.0000E+00  6.3337E+04 -1.8499E+05  8.7644E+04  0.0000E+00  0.0000E+00  1.6069E+05  0.0000E+00
   2.666m  2.3662E+05  0.0000E+00  0.0000E+00  0.0000E+00  9.0000E+01  9.0000E+01  9.0000E+01  0.0000E+00 -3.5520E+00

  rolling -5.4437E+04  3.2236E+02 -6.7777E+04  4.7624E+03 -7.2540E+04  0.0000E+00  0.0000E+00  0.0000E+00  0.0000E+00
 averages -6.6752E+04  0.0000E+00  6.3337E+04 -1.8499E+05  8.7644E+04  0.0000E+00  0.0000E+00  1.6069E+05  0.0000E+00
           2.3662E+05  0.0000E+00  0.0000E+00  0.0000E+00  9.0000E+01  9.0000E+01  9.0000E+01  0.0000E+00 -3.5520E+00
 ------------------------------------------------------------------------------------------------------------------------
       34 -5.4240E+04  3.2688E+02 -6.7786E+04  4.7169E+03 -7.2503E+04  0.0000E+00  0.0000E+00  0.0000E+00  0.0000E+00
 170.000f -6.6220E+04  0.0000E+00  6.2645E+04 -1.8438E+05  8.4179E+04  0.0000E+00  0.0000E+00  1.6285E+05  0.0000E+00
   2.750m  2.3662E+05  0.0000E+00  0.0000E+00  0.0000E+00  9.0000E+01  9.0000E+01  9.0000E+01  0.0000E+00 -3.4492E+00

  rolling -5.4240E+04  3.2688E+02 -6.7786E+04  4.7169E+03 -7.2503E+04  0.0000E+00  0.0000E+00  0.0000E+00  0.0000E+00
 averages -6.6220E+04  0.0000E+00  6.2645E+04 -1.8438E+05  8.4179E+04  0.0000E+00  0.0000E+00  1.6285E+05  0.0000E+00
           2.3662E+05  0.0000E+00  0.0000E+00  0.0000E+00  9.0000E+01  9.0000E+01  9.0000E+01  0.0000E+00 -3.4492E+00
 ------------------------------------------------------------------------------------------------------------------------
       35 -5.3968E+04  3.3046E+02 -6.7685E+04  4.6857E+03 -7.2370E+04  0.0000E+00  0.0000E+00  0.0000E+00  0.0000E+00
 175.000f -6.5481E+04  0.0000E+00  6.1471E+04 -1.8396E+05  8.2444E+04  0.0000E+00  0.0000E+00  1.6299E+05  0.0000E+00
   2.824m  2.3662E+05  0.0000E+00  0.0000E+00  0.0000E+00  9.0000E+01  9.0000E+01  9.0000E+01  0.0000E+00 -3.3072E+00

  rolling -5.3968E+04  3.3046E+02 -6.7685E+04  4.6857E+03 -7.2370E+04  0.0000E+00  0.0000E+00  0.0000E+00  0.0000E+00
 averages -6.5481E+04  0.0000E+00  6.1471E+04 -1.8396E+05  8.2444E+04  0.0000E+00  0.0000E+00  1.6299E+05  0.0000E+00
           2.3662E+05  0.0000E+00  0.0000E+00  0.0000E+00  9.0000E+01  9.0000E+01  9.0000E+01  0.0000E+00 -3.3072E+00
 ------------------------------------------------------------------------------------------------------------------------
       36 -5.4411E+04  3.3145E+02 -6.8194E+04  4.6703E+03 -7.2865E+04  0.0000E+00  0.0000E+00  0.0000E+00  0.0000E+00
 180.000f -6.5080E+04  0.0000E+00  5.8943E+04 -1.8374E+05  8.0645E+04  0.0000E+00  0.0000E+00  1.6204E+05  0.0000E+00
   2.902m  2.3662E+05  0.0000E+00  0.0000E+00  0.0000E+00  9.0000E+01  9.0000E+01  9.0000E+01  0.0000E+00 -3.0552E+00

  rolling -5.4411E+04  3.3145E+02 -6.8194E+04  4.6703E+03 -7.2865E+04  0.0000E+00  0.0000E+00  0.0000E+00  0.0000E+00
 averages -6.5080E+04  0.0000E+00  5.8943E+04 -1.8374E+05  8.0645E+04  0.0000E+00  0.0000E+00  1.6204E+05  0.0000E+00
           2.3662E+05  0.0000E+00  0.0000E+00  0.0000E+00  9.0000E+01  9.0000E+01  9.0000E+01  0.0000E+00 -3.0552E+00
 ------------------------------------------------------------------------------------------------------------------------
       37 -5.4898E+04  3.3017E+02 -6.8658E+04  4.6626E+03 -7.3321E+04  0.0000E+00  0.0000E+00  0.0000E+00  0.0000E+00
 185.000f -6.4589E+04  0.0000E+00  5.5813E+04 -1.8363E+05  7.9014E+04  0.0000E+00  0.0000E+00  1.6042E+05  0.0000E+00
   2.978m  2.3662E+05  0.0000E+00  0.0000E+00  0.0000E+00  9.0000E+01  9.0000E+01  9.0000E+01  0.0000E+00 -2.7630E+00

  rolling -5.4898E+04  3.3017E+02 -6.8658E+04  4.6626E+03 -7.3321E+04  0.0000E+00  0.0000E+00  0.0000E+00  0.0000E+00
 averages -6.4589E+04  0.0000E+00  5.5813E+04 -1.8363E+05  7.9014E+04  0.0000E+00  0.0000E+00  1.6042E+05  0.0000E+00
           2.3662E+05  0.0000E+00  0.0000E+00  0.0000E+00  9.0000E+01  9.0000E+01  9.0000E+01  0.0000E+00 -2.7630E+00
 ------------------------------------------------------------------------------------------------------------------------
       38 -5.4812E+04  3.2893E+02 -6.8554E+04  4.6542E+03 -7.3208E+04  0.0000E+00  0.0000E+00  0.0000E+00  0.0000E+00
 190.000f -6.3272E+04  0.0000E+00  5.1921E+04 -1.8351E+05  7.7593E+04  0.0000E+00  0.0000E+00  1.5783E+05  0.0000E+00
   3.054m  2.3662E+05  0.0000E+00  0.0000E+00  0.0000E+00  9.0000E+01  9.0000E+01  9.0000E+01  0.0000E+00 -2.3970E+00

  rolling -5.4812E+04  3.2893E+02 -6.8554E+04  4.6542E+03 -7.3208E+04  0.0000E+00  0.0000E+00  0.0000E+00  0.0000E+00
 averages -6.3272E+04  0.0000E+00  5.1921E+04 -1.8351E+05  7.7593E+04  0.0000E+00  0.0000E+00  1.5783E+05  0.0000E+00
           2.3662E+05  0.0000E+00  0.0000E+00  0.0000E+00  9.0000E+01  9.0000E+01  9.0000E+01  0.0000E+00 -2.3970E+00
 ------------------------------------------------------------------------------------------------------------------------
       39 -5.4582E+04  3.2821E+02 -6.8329E+04  4.6436E+03 -7.2972E+04  0.0000E+00  0.0000E+00  0.0000E+00  0.0000E+00
 195.000f -6.3468E+04  0.0000E+00  5.3034E+04 -1.8336E+05  7.9988E+04  0.0000E+00  0.0000E+00  1.5641E+05  0.0000E+00
   3.126m  2.3662E+05  0.0000E+00  0.0000E+00  0.0000E+00  9.0000E+01  9.0000E+01  9.0000E+01  0.0000E+00 -2.5102E+00

  rolling -5.4582E+04  3.2821E+02 -6.8329E+04  4.6436E+03 -7.2972E+04  0.0000E+00  0.0000E+00  0.0000E+00  0.0000E+00
 averages -6.3468E+04  0.0000E+00  5.3034E+04 -1.8336E+05  7.9988E+04  0.0000E+00  0.0000E+00  1.5641E+05  0.0000E+00
           2.3662E+05  0.0000E+00  0.0000E+00  0.0000E+00  9.0000E+01  9.0000E+01  9.0000E+01  0.0000E+00 -2.5102E+00
 ------------------------------------------------------------------------------------------------------------------------
       40 -5.4222E+04  3.2798E+02 -6.7999E+04  4.6331E+03 -7.2632E+04  0.0000E+00  0.0000E+00  0.0000E+00  0.0000E+00
 200.000f -6.2698E+04  0.0000E+00  5.1671E+04 -1.8322E+05  7.9046E+04  0.0000E+00  0.0000E+00  1.5584E+05  0.0000E+00
   3.200m  2.3662E+05  0.0000E+00  0.0000E+00  0.0000E+00  9.0000E+01  9.0000E+01  9.0000E+01  0.0000E+00 -2.3803E+00

  rolling -5.4222E+04  3.2798E+02 -6.7999E+04  4.6331E+03 -7.2632E+04  0.0000E+00  0.0000E+00  0.0000E+00  0.0000E+00
 averages -6.2698E+04  0.0000E+00  5.1671E+04 -1.8322E+05  7.9046E+04  0.0000E+00  0.0000E+00  1.5584E+05  0.0000E+00
           2.3662E+05  0.0000E+00  0.0000E+00  0.0000E+00  9.0000E+01  9.0000E+01  9.0000E+01  0.0000E+00 -2.3803E+00
 ------------------------------------------------------------------------------------------------------------------------
 ------------------------------------------------------------------------------------------------------------------------

     step     eng_tot    temp_tot     eng_cfg     eng_vdw     eng_cou     eng_bnd     eng_ang     eng_dih     eng_tet
 time          eng_pv    temp_rot     vir_cfg     vir_vdw     vir_cou     vir_bnd     vir_ang     vir_con     vir_tet
 cpu time      volume    temp_shl     eng_shl     vir_shl       alpha        beta       gamma     vir_pmf       press

 ------------------------------------------------------------------------------------------------------------------------
       41 -5.4031E+04  3.2663E+02 -6.7792E+04  4.6216E+03 -7.2414E+04  0.0000E+00  0.0000E+00  0.0000E+00  0.0000E+00
 205.000f -6.0937E+04  0.0000E+00  4.6726E+04 -1.8306E+05  7.6566E+04  0.0000E+00  0.0000E+00  1.5322E+05  0.0000E+00
   3.275m  2.3662E+05  0.0000E+00  0.0000E+00  0.0000E+00  9.0000E+01  9.0000E+01  9.0000E+01  0.0000E+00 -1.9134E+00

  rolling -5.4031E+04  3.2663E+02 -6.7792E+04  4.6216E+03 -7.2414E+04  0.0000E+00  0.0000E+00  0.0000E+00  0.0000E+00
 averages -6.0937E+04  0.0000E+00  4.6726E+04 -1.8306E+05  7.6566E+04  0.0000E+00  0.0000E+00  1.5322E+05  0.0000E+00
           2.3662E+05  0.0000E+00  0.0000E+00  0.0000E+00  9.0000E+01  9.0000E+01  9.0000E+01  0.0000E+00 -1.9134E+00
 ------------------------------------------------------------------------------------------------------------------------
       42 -5.4007E+04  3.2552E+02 -6.7766E+04  4.6041E+03 -7.2370E+04  0.0000E+00  0.0000E+00  0.0000E+00  0.0000E+00
 210.000f -6.0650E+04  0.0000E+00  4.5714E+04 -1.8282E+05  7.5447E+04  0.0000E+00  0.0000E+00  1.5308E+05  0.0000E+00
   3.353m  2.3662E+05  0.0000E+00  0.0000E+00  0.0000E+00  9.0000E+01  9.0000E+01  9.0000E+01  0.0000E+00 -1.8246E+00

  rolling -5.4007E+04  3.2552E+02 -6.7766E+04  4.6041E+03 -7.2370E+04  0.0000E+00  0.0000E+00  0.0000E+00  0.0000E+00
 averages -6.0650E+04  0.0000E+00  4.5714E+04 -1.8282E+05  7.5447E+04  0.0000E+00  0.0000E+00  1.5308E+05  0.0000E+00
           2.3662E+05  0.0000E+00  0.0000E+00  0.0000E+00  9.0000E+01  9.0000E+01  9.0000E+01  0.0000E+00 -1.8246E+00
 ------------------------------------------------------------------------------------------------------------------------
       43 -5.3354E+04  3.2569E+02 -6.7166E+04  4.5799E+03 -7.1746E+04  0.0000E+00  0.0000E+00  0.0000E+00  0.0000E+00
 215.000f -6.0843E+04  0.0000E+00  4.8128E+04 -1.8249E+05  7.7903E+04  0.0000E+00  0.0000E+00  1.5271E+05  0.0000E+00
   3.425m  2.3662E+05  0.0000E+00  0.0000E+00  0.0000E+00  9.0000E+01  9.0000E+01  9.0000E+01  0.0000E+00 -2.0564E+00

  rolling -5.3354E+04  3.2569E+02 -6.7166E+04  4.5799E+03 -7.1746E+04  0.0000E+00  0.0000E+00  0.0000E+00  0.0000E+00
 averages -6.0843E+04  0.0000E+00  4.8128E+04 -1.8249E+05  7.7903E+04  0.0000E+00  0.0000E+00  1.5271E+05  0.0000E+00
           2.3662E+05  0.0000E+00  0.0000E+00  0.0000E+00  9.0000E+01  9.0000E+01  9.0000E+01  0.0000E+00 -2.0564E+00
 ------------------------------------------------------------------------------------------------------------------------
       44 -5.3248E+04  3.2604E+02 -6.7123E+04  4.5517E+03 -7.1675E+04  0.0000E+00  0.0000E+00  0.0000E+00  0.0000E+00
 220.000f -6.0359E+04  0.0000E+00  4.6875E+04 -1.8210E+05  7.5865E+04  0.0000E+00  0.0000E+00  1.5311E+05  0.0000E+00
   3.501m  2.3662E+05  0.0000E+00  0.0000E+00  0.0000E+00  9.0000E+01  9.0000E+01  9.0000E+01  0.0000E+00 -1.9326E+00

  rolling -5.3248E+04  3.2604E+02 -6.7123E+04  4.5517E+03 -7.1675E+04  0.0000E+00  0.0000E+00  0.0000E+00  0.0000E+00
 averages -6.0359E+04  0.0000E+00  4.6875E+04 -1.8210E+05  7.5865E+04  0.0000E+00  0.0000E+00  1.5311E+05  0.0000E+00
           2.3662E+05  0.0000E+00  0.0000E+00  0.0000E+00  9.0000E+01  9.0000E+01  9.0000E+01  0.0000E+00 -1.9326E+00
 ------------------------------------------------------------------------------------------------------------------------
       45 -5.3196E+04  3.2581E+02 -6.7113E+04  4.5243E+03 -7.1637E+04  0.0000E+00  0.0000E+00  0.0000E+00  0.0000E+00
 225.000f -6.1330E+04  0.0000E+00  4.9775E+04 -1.8172E+05  7.7847E+04  0.0000E+00  0.0000E+00  1.5365E+05  0.0000E+00
   3.574m  2.3662E+05  0.0000E+00  0.0000E+00  0.0000E+00  9.0000E+01  9.0000E+01  9.0000E+01  0.0000E+00 -2.2145E+00

  rolling -5.3196E+04  3.2581E+02 -6.7113E+04  4.5243E+03 -7.1637E+04  0.0000E+00  0.0000E+00  0.0000E+00  0.0000E+00
 averages -6.1330E+04  0.0000E+00  4.9775E+04 -1.8172E+05  7.7847E+04  0.0000E+00  0.0000E+00  1.5365E+05  0.0000E+00
           2.3662E+05  0.0000E+00  0.0000E+00  0.0000E+00  9.0000E+01  9.0000E+01  9.0000E+01  0.0000E+00 -2.2145E+00
 ------------------------------------------------------------------------------------------------------------------------
       46 -5.4115E+04  3.2438E+02 -6.8026E+04  4.5030E+03 -7.2529E+04  0.0000E+00  0.0000E+00  0.0000E+00  0.0000E+00
 230.000f -6.3726E+04  0.0000E+00  5.3927E+04 -1.8143E+05  8.1648E+04  0.0000E+00  0.0000E+00  1.5371E+05  0.0000E+00
   3.648m  2.3662E+05  0.0000E+00  0.0000E+00  0.0000E+00  9.0000E+01  9.0000E+01  9.0000E+01  0.0000E+00 -2.6269E+00

  rolling -5.4115E+04  3.2438E+02 -6.8026E+04  4.5030E+03 -7.2529E+04  0.0000E+00  0.0000E+00  0.0000E+00  0.0000E+00
 averages -6.3726E+04  0.0000E+00  5.3927E+04 -1.8143E+05  8.1648E+04  0.0000E+00  0.0000E+00  1.5371E+05  0.0000E+00
           2.3662E+05  0.0000E+00  0.0000E+00  0.0000E+00  9.0000E+01  9.0000E+01  9.0000E+01  0.0000E+00 -2.6269E+00
 ------------------------------------------------------------------------------------------------------------------------
       47 -5.4766E+04  3.2295E+02 -6.8675E+04  4.4870E+03 -7.3162E+04  0.0000E+00  0.0000E+00  0.0000E+00  0.0000E+00
 235.000f -6.4802E+04  0.0000E+00  5.4915E+04 -1.8121E+05  8.2859E+04  0.0000E+00  0.0000E+00  1.5327E+05  0.0000E+00
   3.721m  2.3662E+05  0.0000E+00  0.0000E+00  0.0000E+00  9.0000E+01  9.0000E+01  9.0000E+01  0.0000E+00 -2.7338E+00

  rolling -5.4766E+04  3.2295E+02 -6.8675E+04  4.4870E+03 -7.3162E+04  0.0000E+00  0.0000E+00  0.0000E+00  0.0000E+00
 averages -6.4802E+04  0.0000E+00  5.4915E+04 -1.8121E+05  8.2859E+04  0.0000E+00  0.0000E+00  1.5327E+05  0.0000E+00
           2.3662E+05  0.0000E+00  0.0000E+00  0.0000E+00  9.0000E+01  9.0000E+01  9.0000E+01  0.0000E+00 -2.7338E+00
 ------------------------------------------------------------------------------------------------------------------------
       48 -5.4184E+04  3.2352E+02 -6.8174E+04  4.4734E+03 -7.2647E+04  0.0000E+00  0.0000E+00  0.0000E+00  0.0000E+00
 240.000f -6.4115E+04  0.0000E+00  5.4475E+04 -1.8102E+05  8.1986E+04  0.0000E+00  0.0000E+00  1.5351E+05  0.0000E+00
   3.796m  2.3662E+05  0.0000E+00  0.0000E+00  0.0000E+00  9.0000E+01  9.0000E+01  9.0000E+01  0.0000E+00 -2.6867E+00

  rolling -5.4184E+04  3.2352E+02 -6.8174E+04  4.4734E+03 -7.2647E+04  0.0000E+00  0.0000E+00  0.0000E+00  0.0000E+00
 averages -6.4115E+04  0.0000E+00  5.4475E+04 -1.8102E+05  8.1986E+04  0.0000E+00  0.0000E+00  1.5351E+05  0.0000E+00
           2.3662E+05  0.0000E+00  0.0000E+00  0.0000E+00  9.0000E+01  9.0000E+01  9.0000E+01  0.0000E+00 -2.6867E+00
 ------------------------------------------------------------------------------------------------------------------------
 ------------------------------------------------------------------------------------------------------------------------

     step     eng_tot    temp_tot     eng_cfg     eng_vdw     eng_cou     eng_bnd     eng_ang     eng_dih     eng_tet
 time          eng_pv    temp_rot     vir_cfg     vir_vdw     vir_cou     vir_bnd     vir_ang     vir_con     vir_tet
 cpu time      volume    temp_shl     eng_shl     vir_shl       alpha        beta       gamma     vir_pmf       press

 ------------------------------------------------------------------------------------------------------------------------
       49 -5.4624E+04  3.2511E+02 -6.8740E+04  4.4592E+03 -7.3199E+04  0.0000E+00  0.0000E+00  0.0000E+00  0.0000E+00
 245.000f -6.3778E+04  0.0000E+00  5.2091E+04 -1.8084E+05  7.9999E+04  0.0000E+00  0.0000E+00  1.5293E+05  0.0000E+00
   3.870m  2.3662E+05  0.0000E+00  0.0000E+00  0.0000E+00  9.0000E+01  9.0000E+01  9.0000E+01  0.0000E+00 -2.4438E+00

  rolling -5.4624E+04  3.2511E+02 -6.8740E+04  4.4592E+03 -7.3199E+04  0.0000E+00  0.0000E+00  0.0000E+00  0.0000E+00
 averages -6.3778E+04  0.0000E+00  5.2091E+04 -1.8084E+05  7.9999E+04  0.0000E+00  0.0000E+00  1.5293E+05  0.0000E+00
           2.3662E+05  0.0000E+00  0.0000E+00  0.0000E+00  9.0000E+01  9.0000E+01  9.0000E+01  0.0000E+00 -2.4438E+00
 ------------------------------------------------------------------------------------------------------------------------
       50 -5.4376E+04  3.2525E+02 -6.8560E+04  4.4417E+03 -7.3002E+04  0.0000E+00  0.0000E+00  0.0000E+00  0.0000E+00
 250.000f -6.3130E+04  0.0000E+00  5.0716E+04 -1.8061E+05  7.7475E+04  0.0000E+00  0.0000E+00  1.5385E+05  0.0000E+00
   3.945m  2.3662E+05  0.0000E+00  0.0000E+00  0.0000E+00  9.0000E+01  9.0000E+01  9.0000E+01  0.0000E+00 -2.3098E+00

  rolling -5.4376E+04  3.2525E+02 -6.8560E+04  4.4417E+03 -7.3002E+04  0.0000E+00  0.0000E+00  0.0000E+00  0.0000E+00
 averages -6.3130E+04  0.0000E+00  5.0716E+04 -1.8061E+05  7.7475E+04  0.0000E+00  0.0000E+00  1.5385E+05  0.0000E+00
           2.3662E+05  0.0000E+00  0.0000E+00  0.0000E+00  9.0000E+01  9.0000E+01  9.0000E+01  0.0000E+00 -2.3098E+00
 ------------------------------------------------------------------------------------------------------------------------
       51 -5.4055E+04  3.2307E+02 -6.8214E+04  4.4211E+03 -7.2635E+04  0.0000E+00  0.0000E+00  0.0000E+00  0.0000E+00
 255.000f -6.1672E+04  0.0000E+00  4.6932E+04 -1.8035E+05  7.5200E+04  0.0000E+00  0.0000E+00  1.5208E+05  0.0000E+00
   4.017m  2.3662E+05  0.0000E+00  0.0000E+00  0.0000E+00  9.0000E+01  9.0000E+01  9.0000E+01  0.0000E+00 -1.9617E+00

  rolling -5.4055E+04  3.2307E+02 -6.8214E+04  4.4211E+03 -7.2635E+04  0.0000E+00  0.0000E+00  0.0000E+00  0.0000E+00
 averages -6.1672E+04  0.0000E+00  4.6932E+04 -1.8035E+05  7.5200E+04  0.0000E+00  0.0000E+00  1.5208E+05  0.0000E+00
           2.3662E+05  0.0000E+00  0.0000E+00  0.0000E+00  9.0000E+01  9.0000E+01  9.0000E+01  0.0000E+00 -1.9617E+00
 ------------------------------------------------------------------------------------------------------------------------
       52 -5.3834E+04  3.2111E+02 -6.7980E+04  4.4003E+03 -7.2380E+04  0.0000E+00  0.0000E+00  0.0000E+00  0.0000E+00
 260.000f -6.2593E+04  0.0000E+00  4.9994E+04 -1.8008E+05  7.9880E+04  0.0000E+00  0.0000E+00  1.5019E+05  0.0000E+00
   4.093m  2.3662E+05  0.0000E+00  0.0000E+00  0.0000E+00  9.0000E+01  9.0000E+01  9.0000E+01  0.0000E+00 -2.2731E+00

  rolling -5.3834E+04  3.2111E+02 -6.7980E+04  4.4003E+03 -7.2380E+04  0.0000E+00  0.0000E+00  0.0000E+00  0.0000E+00
 averages -6.2593E+04  0.0000E+00  4.9994E+04 -1.8008E+05  7.9880E+04  0.0000E+00  0.0000E+00  1.5019E+05  0.0000E+00
           2.3662E+05  0.0000E+00  0.0000E+00  0.0000E+00  9.0000E+01  9.0000E+01  9.0000E+01  0.0000E+00 -2.2731E+00
 ------------------------------------------------------------------------------------------------------------------------
       53 -5.3024E+04  3.2177E+02 -6.7266E+04  4.3842E+03 -7.1650E+04  0.0000E+00  0.0000E+00  0.0000E+00  0.0000E+00
 265.000f -6.0265E+04  0.0000E+00  4.5287E+04 -1.7987E+05  7.5006E+04  0.0000E+00  0.0000E+00  1.5015E+05  0.0000E+00
   4.170m  2.3662E+05  0.0000E+00  0.0000E+00  0.0000E+00  9.0000E+01  9.0000E+01  9.0000E+01  0.0000E+00 -1.8132E+00

  rolling -5.3024E+04  3.2177E+02 -6.7266E+04  4.3842E+03 -7.1650E+04  0.0000E+00  0.0000E+00  0.0000E+00  0.0000E+00
 averages -6.0265E+04  0.0000E+00  4.5287E+04 -1.7987E+05  7.5006E+04  0.0000E+00  0.0000E+00  1.5015E+05  0.0000E+00
           2.3662E+05  0.0000E+00  0.0000E+00  0.0000E+00  9.0000E+01  9.0000E+01  9.0000E+01  0.0000E+00 -1.8132E+00
 ------------------------------------------------------------------------------------------------------------------------
       54 -5.2665E+04  3.2359E+02 -6.7053E+04  4.3768E+03 -7.1430E+04  0.0000E+00  0.0000E+00  0.0000E+00  0.0000E+00
 270.000f -6.0389E+04  0.0000E+00  4.6674E+04 -1.7977E+05  7.7799E+04  0.0000E+00  0.0000E+00  1.4865E+05  0.0000E+00
   4.249m  2.3662E+05  0.0000E+00  0.0000E+00  0.0000E+00  9.0000E+01  9.0000E+01  9.0000E+01  0.0000E+00 -1.9326E+00

  rolling -5.2665E+04  3.2359E+02 -6.7053E+04  4.3768E+03 -7.1430E+04  0.0000E+00  0.0000E+00  0.0000E+00  0.0000E+00
 averages -6.0389E+04  0.0000E+00  4.6674E+04 -1.7977E+05  7.7799E+04  0.0000E+00  0.0000E+00  1.4865E+05  0.0000E+00
           2.3662E+05  0.0000E+00  0.0000E+00  0.0000E+00  9.0000E+01  9.0000E+01  9.0000E+01  0.0000E+00 -1.9326E+00
 ------------------------------------------------------------------------------------------------------------------------
       55 -5.2555E+04  3.2404E+02 -6.7034E+04  4.3770E+03 -7.1411E+04  0.0000E+00  0.0000E+00  0.0000E+00  0.0000E+00
 275.000f -5.9934E+04  0.0000E+00  4.5456E+04 -1.7978E+05  7.6381E+04  0.0000E+00  0.0000E+00  1.4886E+05  0.0000E+00
   4.322m  2.3662E+05  0.0000E+00  0.0000E+00  0.0000E+00  9.0000E+01  9.0000E+01  9.0000E+01  0.0000E+00 -1.8114E+00

  rolling -5.2555E+04  3.2404E+02 -6.7034E+04  4.3770E+03 -7.1411E+04  0.0000E+00  0.0000E+00  0.0000E+00  0.0000E+00
 averages -5.9934E+04  0.0000E+00  4.5456E+04 -1.7978E+05  7.6381E+04  0.0000E+00  0.0000E+00  1.4886E+05  0.0000E+00
           2.3662E+05  0.0000E+00  0.0000E+00  0.0000E+00  9.0000E+01  9.0000E+01  9.0000E+01  0.0000E+00 -1.8114E+00
 ------------------------------------------------------------------------------------------------------------------------
       56 -5.2530E+04  3.2287E+02 -6.7037E+04  4.3793E+03 -7.1416E+04  0.0000E+00  0.0000E+00  0.0000E+00  0.0000E+00
 280.000f -5.9424E+04  0.0000E+00  4.3680E+04 -1.7981E+05  7.4066E+04  0.0000E+00  0.0000E+00  1.4943E+05  0.0000E+00
   4.397m  2.3662E+05  0.0000E+00  0.0000E+00  0.0000E+00  9.0000E+01  9.0000E+01  9.0000E+01  0.0000E+00 -1.6492E+00

  rolling -5.2530E+04  3.2287E+02 -6.7037E+04  4.3793E+03 -7.1416E+04  0.0000E+00  0.0000E+00  0.0000E+00  0.0000E+00
 averages -5.9424E+04  0.0000E+00  4.3680E+04 -1.7981E+05  7.4066E+04  0.0000E+00  0.0000E+00  1.4943E+05  0.0000E+00
           2.3662E+05  0.0000E+00  0.0000E+00  0.0000E+00  9.0000E+01  9.0000E+01  9.0000E+01  0.0000E+00 -1.6492E+00
 ------------------------------------------------------------------------------------------------------------------------
 ------------------------------------------------------------------------------------------------------------------------

     step     eng_tot    temp_tot     eng_cfg     eng_vdw     eng_cou     eng_bnd     eng_ang     eng_dih     eng_tet
 time          eng_pv    temp_rot     vir_cfg     vir_vdw     vir_cou     vir_bnd     vir_ang     vir_con     vir_tet
 cpu time      volume    temp_shl     eng_shl     vir_shl       alpha        beta       gamma     vir_pmf       press

 ------------------------------------------------------------------------------------------------------------------------
       57 -5.2648E+04  3.2185E+02 -6.7191E+04  4.3807E+03 -7.1571E+04  0.0000E+00  0.0000E+00  0.0000E+00  0.0000E+00
 285.000f -6.0452E+04  0.0000E+00  4.6090E+04 -1.7983E+05  7.5250E+04  0.0000E+00  0.0000E+00  1.5067E+05  0.0000E+00
   4.469m  2.3662E+05  0.0000E+00  0.0000E+00  0.0000E+00  9.0000E+01  9.0000E+01  9.0000E+01  0.0000E+00 -1.8900E+00

  rolling -5.2648E+04  3.2185E+02 -6.7191E+04  4.3807E+03 -7.1571E+04  0.0000E+00  0.0000E+00  0.0000E+00  0.0000E+00
 averages -6.0452E+04  0.0000E+00  4.6090E+04 -1.7983E+05  7.5250E+04  0.0000E+00  0.0000E+00  1.5067E+05  0.0000E+00
           2.3662E+05  0.0000E+00  0.0000E+00  0.0000E+00  9.0000E+01  9.0000E+01  9.0000E+01  0.0000E+00 -1.8900E+00
 ------------------------------------------------------------------------------------------------------------------------
       58 -5.2522E+04  3.2216E+02 -6.7157E+04  4.3772E+03 -7.1534E+04  0.0000E+00  0.0000E+00  0.0000E+00  0.0000E+00
 290.000f -5.9994E+04  0.0000E+00  4.4883E+04 -1.7979E+05  7.2792E+04  0.0000E+00  0.0000E+00  1.5188E+05  0.0000E+00
   4.547m  2.3662E+05  0.0000E+00  0.0000E+00  0.0000E+00  9.0000E+01  9.0000E+01  9.0000E+01  0.0000E+00 -1.7710E+00

  rolling -5.2522E+04  3.2216E+02 -6.7157E+04  4.3772E+03 -7.1534E+04  0.0000E+00  0.0000E+00  0.0000E+00  0.0000E+00
 averages -5.9994E+04  0.0000E+00  4.4883E+04 -1.7979E+05  7.2792E+04  0.0000E+00  0.0000E+00  1.5188E+05  0.0000E+00
           2.3662E+05  0.0000E+00  0.0000E+00  0.0000E+00  9.0000E+01  9.0000E+01  9.0000E+01  0.0000E+00 -1.7710E+00
 ------------------------------------------------------------------------------------------------------------------------
       59 -5.3065E+04  3.2359E+02 -6.7841E+04  4.3626E+03 -7.2203E+04  0.0000E+00  0.0000E+00  0.0000E+00  0.0000E+00
 295.000f -6.0773E+04  0.0000E+00  4.5464E+04 -1.7960E+05  7.3121E+04  0.0000E+00  0.0000E+00  1.5195E+05  0.0000E+00
   4.619m  2.3662E+05  0.0000E+00  0.0000E+00  0.0000E+00  9.0000E+01  9.0000E+01  9.0000E+01  0.0000E+00 -1.8158E+00

  rolling -5.3065E+04  3.2359E+02 -6.7841E+04  4.3626E+03 -7.2203E+04  0.0000E+00  0.0000E+00  0.0000E+00  0.0000E+00
 averages -6.0773E+04  0.0000E+00  4.5464E+04 -1.7960E+05  7.3121E+04  0.0000E+00  0.0000E+00  1.5195E+05  0.0000E+00
           2.3662E+05  0.0000E+00  0.0000E+00  0.0000E+00  9.0000E+01  9.0000E+01  9.0000E+01  0.0000E+00 -1.8158E+00
 ------------------------------------------------------------------------------------------------------------------------
       60 -5.2819E+04  3.2402E+02 -6.7695E+04  4.3376E+03 -7.2033E+04  0.0000E+00  0.0000E+00  0.0000E+00  0.0000E+00
 300.000f -6.1063E+04  0.0000E+00  4.6855E+04 -1.7928E+05  7.4330E+04  0.0000E+00  0.0000E+00  1.5181E+05  0.0000E+00
   4.695m  2.3662E+05  0.0000E+00  0.0000E+00  0.0000E+00  9.0000E+01  9.0000E+01  9.0000E+01  0.0000E+00 -1.9467E+00

  rolling -5.2819E+04  3.2402E+02 -6.7695E+04  4.3376E+03 -7.2033E+04  0.0000E+00  0.0000E+00  0.0000E+00  0.0000E+00
 averages -6.1063E+04  0.0000E+00  4.6855E+04 -1.7928E+05  7.4330E+04  0.0000E+00  0.0000E+00  1.5181E+05  0.0000E+00
           2.3662E+05  0.0000E+00  0.0000E+00  0.0000E+00  9.0000E+01  9.0000E+01  9.0000E+01  0.0000E+00 -1.9467E+00
 ------------------------------------------------------------------------------------------------------------------------
       61 -5.2625E+04  3.2383E+02 -6.7581E+04  4.3116E+03 -7.1893E+04  0.0000E+00  0.0000E+00  0.0000E+00  0.0000E+00
 305.000f -6.1301E+04  0.0000E+00  4.7875E+04 -1.7894E+05  7.4631E+04  0.0000E+00  0.0000E+00  1.5219E+05  0.0000E+00
   4.767m  2.3662E+05  0.0000E+00  0.0000E+00  0.0000E+00  9.0000E+01  9.0000E+01  9.0000E+01  0.0000E+00 -2.0467E+00

  rolling -5.2625E+04  3.2383E+02 -6.7581E+04  4.3116E+03 -7.1893E+04  0.0000E+00  0.0000E+00  0.0000E+00  0.0000E+00
 averages -6.1301E+04  0.0000E+00  4.7875E+04 -1.7894E+05  7.4631E+04  0.0000E+00  0.0000E+00  1.5219E+05  0.0000E+00
           2.3662E+05  0.0000E+00  0.0000E+00  0.0000E+00  9.0000E+01  9.0000E+01  9.0000E+01  0.0000E+00 -2.0467E+00
 ------------------------------------------------------------------------------------------------------------------------
       62 -5.2623E+04  3.2317E+02 -6.7640E+04  4.2945E+03 -7.1935E+04  0.0000E+00  0.0000E+00  0.0000E+00  0.0000E+00
 310.000f -6.3208E+04  0.0000E+00  5.3282E+04 -1.7872E+05  7.8649E+04  0.0000E+00  0.0000E+00  1.5335E+05  0.0000E+00
   4.843m  2.3662E+05  0.0000E+00  0.0000E+00  0.0000E+00  9.0000E+01  9.0000E+01  9.0000E+01  0.0000E+00 -2.5742E+00

  rolling -5.2623E+04  3.2317E+02 -6.7640E+04  4.2945E+03 -7.1935E+04  0.0000E+00  0.0000E+00  0.0000E+00  0.0000E+00
 averages -6.3208E+04  0.0000E+00  5.3282E+04 -1.7872E+05  7.8649E+04  0.0000E+00  0.0000E+00  1.5335E+05  0.0000E+00
           2.3662E+05  0.0000E+00  0.0000E+00  0.0000E+00  9.0000E+01  9.0000E+01  9.0000E+01  0.0000E+00 -2.5742E+00
 ------------------------------------------------------------------------------------------------------------------------
       63 -5.2761E+04  3.2245E+02 -6.7839E+04  4.2897E+03 -7.2129E+04  0.0000E+00  0.0000E+00  0.0000E+00  0.0000E+00
 315.000f -6.3319E+04  0.0000E+00  5.2871E+04 -1.7864E+05  7.7335E+04  0.0000E+00  0.0000E+00  1.5418E+05  0.0000E+00
   4.927m  2.3662E+05  0.0000E+00  0.0000E+00  0.0000E+00  9.0000E+01  9.0000E+01  9.0000E+01  0.0000E+00 -2.5403E+00

  rolling -5.2761E+04  3.2245E+02 -6.7839E+04  4.2897E+03 -7.2129E+04  0.0000E+00  0.0000E+00  0.0000E+00  0.0000E+00
 averages -6.3319E+04  0.0000E+00  5.2871E+04 -1.7864E+05  7.7335E+04  0.0000E+00  0.0000E+00  1.5418E+05  0.0000E+00
           2.3662E+05  0.0000E+00  0.0000E+00  0.0000E+00  9.0000E+01  9.0000E+01  9.0000E+01  0.0000E+00 -2.5403E+00
 ------------------------------------------------------------------------------------------------------------------------
       64 -5.2790E+04  3.2211E+02 -6.7947E+04  4.2925E+03 -7.2239E+04  0.0000E+00  0.0000E+00  0.0000E+00  0.0000E+00
 320.000f -6.3793E+04  0.0000E+00  5.3901E+04 -1.7865E+05  7.7927E+04  0.0000E+00  0.0000E+00  1.5463E+05  0.0000E+00
   5.015m  2.3662E+05  0.0000E+00  0.0000E+00  0.0000E+00  9.0000E+01  9.0000E+01  9.0000E+01  0.0000E+00 -2.6425E+00

  rolling -5.2790E+04  3.2211E+02 -6.7947E+04  4.2925E+03 -7.2239E+04  0.0000E+00  0.0000E+00  0.0000E+00  0.0000E+00
 averages -6.3793E+04  0.0000E+00  5.3901E+04 -1.7865E+05  7.7927E+04  0.0000E+00  0.0000E+00  1.5463E+05  0.0000E+00
           2.3662E+05  0.0000E+00  0.0000E+00  0.0000E+00  9.0000E+01  9.0000E+01  9.0000E+01  0.0000E+00 -2.6425E+00
 ------------------------------------------------------------------------------------------------------------------------
 ------------------------------------------------------------------------------------------------------------------------

     step     eng_tot    temp_tot     eng_cfg     eng_vdw     eng_cou     eng_bnd     eng_ang     eng_dih     eng_tet
 time          eng_pv    temp_rot     vir_cfg     vir_vdw     vir_cou     vir_bnd     vir_ang     vir_con     vir_tet
 cpu time      volume    temp_shl     eng_shl     vir_shl       alpha        beta       gamma     vir_pmf       press

 ------------------------------------------------------------------------------------------------------------------------
       65 -5.2975E+04  3.2204E+02 -6.8223E+04  4.2937E+03 -7.2517E+04  0.0000E+00  0.0000E+00  0.0000E+00  0.0000E+00
 325.000f -6.3756E+04  0.0000E+00  5.2946E+04 -1.7865E+05  7.7395E+04  0.0000E+00  0.0000E+00  1.5420E+05  0.0000E+00
   5.089m  2.3662E+05  0.0000E+00  0.0000E+00  0.0000E+00  9.0000E+01  9.0000E+01  9.0000E+01  0.0000E+00 -2.5508E+00

  rolling -5.2975E+04  3.2204E+02 -6.8223E+04  4.2937E+03 -7.2517E+04  0.0000E+00  0.0000E+00  0.0000E+00  0.0000E+00
 averages -6.3756E+04  0.0000E+00  5.2946E+04 -1.7865E+05  7.7395E+04  0.0000E+00  0.0000E+00  1.5420E+05  0.0000E+00
           2.3662E+05  0.0000E+00  0.0000E+00  0.0000E+00  9.0000E+01  9.0000E+01  9.0000E+01  0.0000E+00 -2.5508E+00
 ------------------------------------------------------------------------------------------------------------------------
       66 -5.2817E+04  3.2183E+02 -6.8153E+04  4.2861E+03 -7.2439E+04  0.0000E+00  0.0000E+00  0.0000E+00  0.0000E+00
 330.000f -6.3522E+04  0.0000E+00  5.2411E+04 -1.7854E+05  7.6964E+04  0.0000E+00  0.0000E+00  1.5398E+05  0.0000E+00
   5.165m  2.3662E+05  0.0000E+00  0.0000E+00  0.0000E+00  9.0000E+01  9.0000E+01  9.0000E+01  0.0000E+00 -2.5008E+00

  rolling -5.2817E+04  3.2183E+02 -6.8153E+04  4.2861E+03 -7.2439E+04  0.0000E+00  0.0000E+00  0.0000E+00  0.0000E+00
 averages -6.3522E+04  0.0000E+00  5.2411E+04 -1.7854E+05  7.6964E+04  0.0000E+00  0.0000E+00  1.5398E+05  0.0000E+00
           2.3662E+05  0.0000E+00  0.0000E+00  0.0000E+00  9.0000E+01  9.0000E+01  9.0000E+01  0.0000E+00 -2.5008E+00
 ------------------------------------------------------------------------------------------------------------------------
       67 -5.2808E+04  3.2202E+02 -6.8250E+04  4.2689E+03 -7.2519E+04  0.0000E+00  0.0000E+00  0.0000E+00  0.0000E+00
 335.000f -6.4377E+04  0.0000E+00  5.4724E+04 -1.7830E+05  7.8577E+04  0.0000E+00  0.0000E+00  1.5444E+05  0.0000E+00
   5.240m  2.3662E+05  0.0000E+00  0.0000E+00  0.0000E+00  9.0000E+01  9.0000E+01  9.0000E+01  0.0000E+00 -2.7227E+00

  rolling -5.2808E+04  3.2202E+02 -6.8250E+04  4.2689E+03 -7.2519E+04  0.0000E+00  0.0000E+00  0.0000E+00  0.0000E+00
 averages -6.4377E+04  0.0000E+00  5.4724E+04 -1.7830E+05  7.8577E+04  0.0000E+00  0.0000E+00  1.5444E+05  0.0000E+00
           2.3662E+05  0.0000E+00  0.0000E+00  0.0000E+00  9.0000E+01  9.0000E+01  9.0000E+01  0.0000E+00 -2.7227E+00
 ------------------------------------------------------------------------------------------------------------------------
       68 -5.3090E+04  3.2227E+02 -6.8643E+04  4.2477E+03 -7.2891E+04  0.0000E+00  0.0000E+00  0.0000E+00  0.0000E+00
 340.000f -6.4408E+04  0.0000E+00  5.3690E+04 -1.7800E+05  7.7327E+04  0.0000E+00  0.0000E+00  1.5436E+05  0.0000E+00
   5.317m  2.3662E+05  0.0000E+00  0.0000E+00  0.0000E+00  9.0000E+01  9.0000E+01  9.0000E+01  0.0000E+00 -2.6209E+00

  rolling -5.3090E+04  3.2227E+02 -6.8643E+04  4.2477E+03 -7.2891E+04  0.0000E+00  0.0000E+00  0.0000E+00  0.0000E+00
 averages -6.4408E+04  0.0000E+00  5.3690E+04 -1.7800E+05  7.7327E+04  0.0000E+00  0.0000E+00  1.5436E+05  0.0000E+00
           2.3662E+05  0.0000E+00  0.0000E+00  0.0000E+00  9.0000E+01  9.0000E+01  9.0000E+01  0.0000E+00 -2.6209E+00
 ------------------------------------------------------------------------------------------------------------------------
       69 -5.3001E+04  3.2127E+02 -6.8615E+04  4.2266E+03 -7.2842E+04  0.0000E+00  0.0000E+00  0.0000E+00  0.0000E+00
 345.000f -6.4315E+04  0.0000E+00  5.3287E+04 -1.7770E+05  7.7783E+04  0.0000E+00  0.0000E+00  1.5321E+05  0.0000E+00
   5.394m  2.3662E+05  0.0000E+00  0.0000E+00  0.0000E+00  9.0000E+01  9.0000E+01  9.0000E+01  0.0000E+00 -2.5899E+00

  rolling -5.3001E+04  3.2127E+02 -6.8615E+04  4.2266E+03 -7.2842E+04  0.0000E+00  0.0000E+00  0.0000E+00  0.0000E+00
 averages -6.4315E+04  0.0000E+00  5.3287E+04 -1.7770E+05  7.7783E+04  0.0000E+00  0.0000E+00  1.5321E+05  0.0000E+00
           2.3662E+05  0.0000E+00  0.0000E+00  0.0000E+00  9.0000E+01  9.0000E+01  9.0000E+01  0.0000E+00 -2.5899E+00
 ------------------------------------------------------------------------------------------------------------------------
       70 -5.3674E+04  3.1998E+02 -6.9339E+04  4.2035E+03 -7.3542E+04  0.0000E+00  0.0000E+00  0.0000E+00  0.0000E+00
 350.000f -6.5901E+04  0.0000E+00  5.5608E+04 -1.7738E+05  7.8953E+04  0.0000E+00  0.0000E+00  1.5403E+05  0.0000E+00
   5.471m  2.3662E+05  0.0000E+00  0.0000E+00  0.0000E+00  9.0000E+01  9.0000E+01  9.0000E+01  0.0000E+00 -2.8244E+00

  rolling -5.3674E+04  3.1998E+02 -6.9339E+04  4.2035E+03 -7.3542E+04  0.0000E+00  0.0000E+00  0.0000E+00  0.0000E+00
 averages -6.5901E+04  0.0000E+00  5.5608E+04 -1.7738E+05  7.8953E+04  0.0000E+00  0.0000E+00  1.5403E+05  0.0000E+00
           2.3662E+05  0.0000E+00  0.0000E+00  0.0000E+00  9.0000E+01  9.0000E+01  9.0000E+01  0.0000E+00 -2.8244E+00
 ------------------------------------------------------------------------------------------------------------------------
       71 -5.3456E+04  3.1942E+02 -6.9203E+04  4.1755E+03 -7.3379E+04  0.0000E+00  0.0000E+00  0.0000E+00  0.0000E+00
 355.000f -6.5441E+04  0.0000E+00  5.4519E+04 -1.7699E+05  7.9381E+04  0.0000E+00  0.0000E+00  1.5212E+05  0.0000E+00
   5.544m  2.3662E+05  0.0000E+00  0.0000E+00  0.0000E+00  9.0000E+01  9.0000E+01  9.0000E+01  0.0000E+00 -2.7235E+00

  rolling -5.3456E+04  3.1942E+02 -6.9203E+04  4.1755E+03 -7.3379E+04  0.0000E+00  0.0000E+00  0.0000E+00  0.0000E+00
 averages -6.5441E+04  0.0000E+00  5.4519E+04 -1.7699E+05  7.9381E+04  0.0000E+00  0.0000E+00  1.5212E+05  0.0000E+00
           2.3662E+05  0.0000E+00  0.0000E+00  0.0000E+00  9.0000E+01  9.0000E+01  9.0000E+01  0.0000E+00 -2.7235E+00
 ------------------------------------------------------------------------------------------------------------------------
       72 -5.3730E+04  3.1976E+02 -6.9598E+04  4.1444E+03 -7.3742E+04  0.0000E+00  0.0000E+00  0.0000E+00  0.0000E+00
 360.000f -6.5789E+04  0.0000E+00  5.4451E+04 -1.7656E+05  7.7932E+04  0.0000E+00  0.0000E+00  1.5308E+05  0.0000E+00
   5.619m  2.3662E+05  0.0000E+00  0.0000E+00  0.0000E+00  9.0000E+01  9.0000E+01  9.0000E+01  0.0000E+00 -2.7144E+00

  rolling -5.3730E+04  3.1976E+02 -6.9598E+04  4.1444E+03 -7.3742E+04  0.0000E+00  0.0000E+00  0.0000E+00  0.0000E+00
 averages -6.5789E+04  0.0000E+00  5.4451E+04 -1.7656E+05  7.7932E+04  0.0000E+00  0.0000E+00  1.5308E+05  0.0000E+00
           2.3662E+05  0.0000E+00  0.0000E+00  0.0000E+00  9.0000E+01  9.0000E+01  9.0000E+01  0.0000E+00 -2.7144E+00
 ------------------------------------------------------------------------------------------------------------------------
 ------------------------------------------------------------------------------------------------------------------------

     step     eng_tot    temp_tot     eng_cfg     eng_vdw     eng_cou     eng_bnd     eng_ang     eng_dih     eng_tet
 time          eng_pv    temp_rot     vir_cfg     vir_vdw     vir_cou     vir_bnd     vir_ang     vir_con     vir_tet
 cpu time      volume    temp_shl     eng_shl     vir_shl       alpha        beta       gamma     vir_pmf       press

 ------------------------------------------------------------------------------------------------------------------------
       73 -5.4154E+04  3.1884E+02 -7.0093E+04  4.1188E+03 -7.4212E+04  0.0000E+00  0.0000E+00  0.0000E+00  0.0000E+00
 365.000f -6.5962E+04  0.0000E+00  5.3294E+04 -1.7620E+05  7.8397E+04  0.0000E+00  0.0000E+00  1.5110E+05  0.0000E+00
   5.694m  2.3662E+05  0.0000E+00  0.0000E+00  0.0000E+00  9.0000E+01  9.0000E+01  9.0000E+01  0.0000E+00 -2.6098E+00

  rolling -5.4154E+04  3.1884E+02 -7.0093E+04  4.1188E+03 -7.4212E+04  0.0000E+00  0.0000E+00  0.0000E+00  0.0000E+00
 averages -6.5962E+04  0.0000E+00  5.3294E+04 -1.7620E+05  7.8397E+04  0.0000E+00  0.0000E+00  1.5110E+05  0.0000E+00
           2.3662E+05  0.0000E+00  0.0000E+00  0.0000E+00  9.0000E+01  9.0000E+01  9.0000E+01  0.0000E+00 -2.6098E+00
 ------------------------------------------------------------------------------------------------------------------------
       74 -5.4017E+04  3.1634E+02 -6.9962E+04  4.1035E+03 -7.4065E+04  0.0000E+00  0.0000E+00  0.0000E+00  0.0000E+00
 370.000f -6.6446E+04  0.0000E+00  5.4625E+04 -1.7599E+05  7.9724E+04  0.0000E+00  0.0000E+00  1.5089E+05  0.0000E+00
   5.769m  2.3662E+05  0.0000E+00  0.0000E+00  0.0000E+00  9.0000E+01  9.0000E+01  9.0000E+01  0.0000E+00 -2.7584E+00

  rolling -5.4017E+04  3.1634E+02 -6.9962E+04  4.1035E+03 -7.4065E+04  0.0000E+00  0.0000E+00  0.0000E+00  0.0000E+00
 averages -6.6446E+04  0.0000E+00  5.4625E+04 -1.7599E+05  7.9724E+04  0.0000E+00  0.0000E+00  1.5089E+05  0.0000E+00
           2.3662E+05  0.0000E+00  0.0000E+00  0.0000E+00  9.0000E+01  9.0000E+01  9.0000E+01  0.0000E+00 -2.7584E+00
 ------------------------------------------------------------------------------------------------------------------------
       75 -5.4025E+04  3.1459E+02 -7.0008E+04  4.0997E+03 -7.4108E+04  0.0000E+00  0.0000E+00  0.0000E+00  0.0000E+00
 375.000f -6.6923E+04  0.0000E+00  5.5557E+04 -1.7594E+05  8.0460E+04  0.0000E+00  0.0000E+00  1.5103E+05  0.0000E+00
   5.848m  2.3662E+05  0.0000E+00  0.0000E+00  0.0000E+00  9.0000E+01  9.0000E+01  9.0000E+01  0.0000E+00 -2.8624E+00

  rolling -5.4025E+04  3.1459E+02 -7.0008E+04  4.0997E+03 -7.4108E+04  0.0000E+00  0.0000E+00  0.0000E+00  0.0000E+00
 averages -6.6923E+04  0.0000E+00  5.5557E+04 -1.7594E+05  8.0460E+04  0.0000E+00  0.0000E+00  1.5103E+05  0.0000E+00
           2.3662E+05  0.0000E+00  0.0000E+00  0.0000E+00  9.0000E+01  9.0000E+01  9.0000E+01  0.0000E+00 -2.8624E+00
 ------------------------------------------------------------------------------------------------------------------------
       76 -5.4075E+04  3.1422E+02 -7.0153E+04  4.1110E+03 -7.4264E+04  0.0000E+00  0.0000E+00  0.0000E+00  0.0000E+00
 380.000f -6.7053E+04  0.0000E+00  5.5434E+04 -1.7608E+05  8.0739E+04  0.0000E+00  0.0000E+00  1.5078E+05  0.0000E+00
   5.921m  2.3662E+05  0.0000E+00  0.0000E+00  0.0000E+00  9.0000E+01  9.0000E+01  9.0000E+01  0.0000E+00 -2.8533E+00

  rolling -5.4075E+04  3.1422E+02 -7.0153E+04  4.1110E+03 -7.4264E+04  0.0000E+00  0.0000E+00  0.0000E+00  0.0000E+00
 averages -6.7053E+04  0.0000E+00  5.5434E+04 -1.7608E+05  8.0739E+04  0.0000E+00  0.0000E+00  1.5078E+05  0.0000E+00
           2.3662E+05  0.0000E+00  0.0000E+00  0.0000E+00  9.0000E+01  9.0000E+01  9.0000E+01  0.0000E+00 -2.8533E+00
 ------------------------------------------------------------------------------------------------------------------------
       77 -5.4579E+04  3.1440E+02 -7.0777E+04  4.1376E+03 -7.4914E+04  0.0000E+00  0.0000E+00  0.0000E+00  0.0000E+00
 385.000f -6.7643E+04  0.0000E+00  5.5372E+04 -1.7643E+05  8.1118E+04  0.0000E+00  0.0000E+00  1.5069E+05  0.0000E+00
   5.996m  2.3662E+05  0.0000E+00  0.0000E+00  0.0000E+00  9.0000E+01  9.0000E+01  9.0000E+01  0.0000E+00 -2.8460E+00

  rolling -5.4579E+04  3.1440E+02 -7.0777E+04  4.1376E+03 -7.4914E+04  0.0000E+00  0.0000E+00  0.0000E+00  0.0000E+00
 averages -6.7643E+04  0.0000E+00  5.5372E+04 -1.7643E+05  8.1118E+04  0.0000E+00  0.0000E+00  1.5069E+05  0.0000E+00
           2.3662E+05  0.0000E+00  0.0000E+00  0.0000E+00  9.0000E+01  9.0000E+01  9.0000E+01  0.0000E+00 -2.8460E+00
 ------------------------------------------------------------------------------------------------------------------------
       78 -5.4480E+04  3.1376E+02 -7.0764E+04  4.1718E+03 -7.4936E+04  0.0000E+00  0.0000E+00  0.0000E+00  0.0000E+00
 390.000f -6.8128E+04  0.0000E+00  5.6732E+04 -1.7688E+05  8.1553E+04  0.0000E+00  0.0000E+00  1.5206E+05  0.0000E+00
   6.073m  2.3662E+05  0.0000E+00  0.0000E+00  0.0000E+00  9.0000E+01  9.0000E+01  9.0000E+01  0.0000E+00 -2.9824E+00

  rolling -5.4480E+04  3.1376E+02 -7.0764E+04  4.1718E+03 -7.4936E+04  0.0000E+00  0.0000E+00  0.0000E+00  0.0000E+00
 averages -6.8128E+04  0.0000E+00  5.6732E+04 -1.7688E+05  8.1553E+04  0.0000E+00  0.0000E+00  1.5206E+05  0.0000E+00
           2.3662E+05  0.0000E+00  0.0000E+00  0.0000E+00  9.0000E+01  9.0000E+01  9.0000E+01  0.0000E+00 -2.9824E+00
 ------------------------------------------------------------------------------------------------------------------------
       79 -5.4557E+04  3.1192E+02 -7.0877E+04  4.2041E+03 -7.5081E+04  0.0000E+00  0.0000E+00  0.0000E+00  0.0000E+00
 395.000f -6.7839E+04  0.0000E+00  5.5144E+04 -1.7730E+05  8.0810E+04  0.0000E+00  0.0000E+00  1.5164E+05  0.0000E+00
   6.150m  2.3662E+05  0.0000E+00  0.0000E+00  0.0000E+00  9.0000E+01  9.0000E+01  9.0000E+01  0.0000E+00 -2.8438E+00

  rolling -5.4557E+04  3.1192E+02 -7.0877E+04  4.2041E+03 -7.5081E+04  0.0000E+00  0.0000E+00  0.0000E+00  0.0000E+00
 averages -6.7839E+04  0.0000E+00  5.5144E+04 -1.7730E+05  8.0810E+04  0.0000E+00  0.0000E+00  1.5164E+05  0.0000E+00
           2.3662E+05  0.0000E+00  0.0000E+00  0.0000E+00  9.0000E+01  9.0000E+01  9.0000E+01  0.0000E+00 -2.8438E+00
 ------------------------------------------------------------------------------------------------------------------------
       80 -5.5056E+04  3.0973E+02 -7.1398E+04  4.2275E+03 -7.5626E+04  0.0000E+00  0.0000E+00  0.0000E+00  0.0000E+00
 400.000f -6.8418E+04  0.0000E+00  5.4869E+04 -1.7761E+05  8.0791E+04  0.0000E+00  0.0000E+00  1.5169E+05  0.0000E+00
   6.226m  2.3662E+05  0.0000E+00  0.0000E+00  0.0000E+00  9.0000E+01  9.0000E+01  9.0000E+01  0.0000E+00 -2.8345E+00

  rolling -5.5056E+04  3.0973E+02 -7.1398E+04  4.2275E+03 -7.5626E+04  0.0000E+00  0.0000E+00  0.0000E+00  0.0000E+00
 averages -6.8418E+04  0.0000E+00  5.4869E+04 -1.7761E+05  8.0791E+04  0.0000E+00  0.0000E+00  1.5169E+05  0.0000E+00
           2.3662E+05  0.0000E+00  0.0000E+00  0.0000E+00  9.0000E+01  9.0000E+01  9.0000E+01  0.0000E+00 -2.8345E+00
 ------------------------------------------------------------------------------------------------------------------------
 ------------------------------------------------------------------------------------------------------------------------

     step     eng_tot    temp_tot     eng_cfg     eng_vdw     eng_cou     eng_bnd     eng_ang     eng_dih     eng_tet
 time          eng_pv    temp_rot     vir_cfg     vir_vdw     vir_cou     vir_bnd     vir_ang     vir_con     vir_tet
 cpu time      volume    temp_shl     eng_shl     vir_shl       alpha        beta       gamma     vir_pmf       press

 ------------------------------------------------------------------------------------------------------------------------
       81 -5.5845E+04  3.0830E+02 -7.2241E+04  4.2407E+03 -7.6481E+04  0.0000E+00  0.0000E+00  0.0000E+00  0.0000E+00
 405.000f -6.9987E+04  0.0000E+00  5.6755E+04 -1.7778E+05  8.2169E+04  0.0000E+00  0.0000E+00  1.5237E+05  0.0000E+00
   6.305m  2.3662E+05  0.0000E+00  0.0000E+00  0.0000E+00  9.0000E+01  9.0000E+01  9.0000E+01  0.0000E+00 -3.0281E+00

[...]
   4.920p -6.4698E+04  0.0000E+00  5.4183E+04 -1.8206E+05  8.4912E+04  0.0000E+00  0.0000E+00  1.5133E+05  0.0000E+00
   1.213h  2.3662E+05  0.0000E+00  0.0000E+00  0.0000E+00  9.0000E+01  9.0000E+01  9.0000E+01  0.0000E+00 -2.7714E+00

  rolling  6.8521E+03  3.0934E+02 -6.7880E+04  4.5542E+03 -7.2434E+04  0.0000E+00  0.0000E+00  0.0000E+00  0.0000E+00
 averages -6.4698E+04  0.0000E+00  5.4183E+04 -1.8206E+05  8.4912E+04  0.0000E+00  0.0000E+00  1.5133E+05  0.0000E+00
           2.3662E+05  0.0000E+00  0.0000E+00  0.0000E+00  9.0000E+01  9.0000E+01  9.0000E+01  0.0000E+00 -2.7714E+00
 ------------------------------------------------------------------------------------------------------------------------
 ------------------------------------------------------------------------------------------------------------------------

     step     eng_tot    temp_tot     eng_cfg     eng_vdw     eng_cou     eng_bnd     eng_ang     eng_dih     eng_tet
 time          eng_pv    temp_rot     vir_cfg     vir_vdw     vir_cou     vir_bnd     vir_ang     vir_con     vir_tet
 cpu time      volume    temp_shl     eng_shl     vir_shl       alpha        beta       gamma     vir_pmf       press

 ------------------------------------------------------------------------------------------------------------------------
      985  5.5029E+03  3.1064E+02 -6.9337E+04  4.5519E+03 -7.3889E+04  0.0000E+00  0.0000E+00  0.0000E+00  0.0000E+00
   4.925p -6.4814E+04  0.0000E+00  5.0427E+04 -1.8203E+05  8.1071E+04  0.0000E+00  0.0000E+00  1.5138E+05  0.0000E+00
   1.214h  2.3662E+05  0.0000E+00  0.0000E+00  0.0000E+00  9.0000E+01  9.0000E+01  9.0000E+01  0.0000E+00 -2.3983E+00

  rolling  5.5029E+03  3.1064E+02 -6.9337E+04  4.5519E+03 -7.3889E+04  0.0000E+00  0.0000E+00  0.0000E+00  0.0000E+00
 averages -6.4814E+04  0.0000E+00  5.0427E+04 -1.8203E+05  8.1071E+04  0.0000E+00  0.0000E+00  1.5138E+05  0.0000E+00
           2.3662E+05  0.0000E+00  0.0000E+00  0.0000E+00  9.0000E+01  9.0000E+01  9.0000E+01  0.0000E+00 -2.3983E+00
 ------------------------------------------------------------------------------------------------------------------------
      986  4.9610E+03  3.1184E+02 -6.9984E+04  4.5552E+03 -7.4539E+04  0.0000E+00  0.0000E+00  0.0000E+00  0.0000E+00
   4.930p -6.5483E+04  0.0000E+00  5.0743E+04 -1.8206E+05  8.1152E+04  0.0000E+00  0.0000E+00  1.5165E+05  0.0000E+00
   1.216h  2.3662E+05  0.0000E+00  0.0000E+00  0.0000E+00  9.0000E+01  9.0000E+01  9.0000E+01  0.0000E+00 -2.4192E+00

  rolling  4.9610E+03  3.1184E+02 -6.9984E+04  4.5552E+03 -7.4539E+04  0.0000E+00  0.0000E+00  0.0000E+00  0.0000E+00
 averages -6.5483E+04  0.0000E+00  5.0743E+04 -1.8206E+05  8.1152E+04  0.0000E+00  0.0000E+00  1.5165E+05  0.0000E+00
           2.3662E+05  0.0000E+00  0.0000E+00  0.0000E+00  9.0000E+01  9.0000E+01  9.0000E+01  0.0000E+00 -2.4192E+00
 ------------------------------------------------------------------------------------------------------------------------
      987  5.1242E+03  3.1247E+02 -6.9903E+04  4.5613E+03 -7.4464E+04  0.0000E+00  0.0000E+00  0.0000E+00  0.0000E+00
   4.935p -6.5512E+04  0.0000E+00  5.1203E+04 -1.8213E+05  8.0792E+04  0.0000E+00  0.0000E+00  1.5254E+05  0.0000E+00
   1.217h  2.3662E+05  0.0000E+00  0.0000E+00  0.0000E+00  9.0000E+01  9.0000E+01  9.0000E+01  0.0000E+00 -2.4587E+00

  rolling  5.1242E+03  3.1247E+02 -6.9903E+04  4.5613E+03 -7.4464E+04  0.0000E+00  0.0000E+00  0.0000E+00  0.0000E+00
 averages -6.5512E+04  0.0000E+00  5.1203E+04 -1.8213E+05  8.0792E+04  0.0000E+00  0.0000E+00  1.5254E+05  0.0000E+00
           2.3662E+05  0.0000E+00  0.0000E+00  0.0000E+00  9.0000E+01  9.0000E+01  9.0000E+01  0.0000E+00 -2.4587E+00
 ------------------------------------------------------------------------------------------------------------------------
      988  4.6805E+03  3.1208E+02 -7.0387E+04  4.5658E+03 -7.4953E+04  0.0000E+00  0.0000E+00  0.0000E+00  0.0000E+00
   4.940p -6.5580E+04  0.0000E+00  4.9872E+04 -1.8218E+05  7.9220E+04  0.0000E+00  0.0000E+00  1.5283E+05  0.0000E+00
   1.218h  2.3662E+05  0.0000E+00  0.0000E+00  0.0000E+00  9.0000E+01  9.0000E+01  9.0000E+01  0.0000E+00 -2.3332E+00

  rolling  4.6805E+03  3.1208E+02 -7.0387E+04  4.5658E+03 -7.4953E+04  0.0000E+00  0.0000E+00  0.0000E+00  0.0000E+00
 averages -6.5580E+04  0.0000E+00  4.9872E+04 -1.8218E+05  7.9220E+04  0.0000E+00  0.0000E+00  1.5283E+05  0.0000E+00
           2.3662E+05  0.0000E+00  0.0000E+00  0.0000E+00  9.0000E+01  9.0000E+01  9.0000E+01  0.0000E+00 -2.3332E+00
 ------------------------------------------------------------------------------------------------------------------------
      989  4.6808E+03  3.1166E+02 -7.0427E+04  4.5647E+03 -7.4991E+04  0.0000E+00  0.0000E+00  0.0000E+00  0.0000E+00
   4.945p -6.6303E+04  0.0000E+00  5.1836E+04 -1.8216E+05  8.1124E+04  0.0000E+00  0.0000E+00  1.5287E+05  0.0000E+00
   1.219h  2.3662E+05  0.0000E+00  0.0000E+00  0.0000E+00  9.0000E+01  9.0000E+01  9.0000E+01  0.0000E+00 -2.5263E+00

  rolling  4.6808E+03  3.1166E+02 -7.0427E+04  4.5647E+03 -7.4991E+04  0.0000E+00  0.0000E+00  0.0000E+00  0.0000E+00
 averages -6.6303E+04  0.0000E+00  5.1836E+04 -1.8216E+05  8.1124E+04  0.0000E+00  0.0000E+00  1.5287E+05  0.0000E+00
           2.3662E+05  0.0000E+00  0.0000E+00  0.0000E+00  9.0000E+01  9.0000E+01  9.0000E+01  0.0000E+00 -2.5263E+00
 ------------------------------------------------------------------------------------------------------------------------
      990  4.8056E+03  3.1256E+02 -7.0397E+04  4.5567E+03 -7.4954E+04  0.0000E+00  0.0000E+00  0.0000E+00  0.0000E+00
   4.950p -6.6885E+04  0.0000E+00  5.3857E+04 -1.8205E+05  8.2528E+04  0.0000E+00  0.0000E+00  1.5338E+05  0.0000E+00
   1.221h  2.3662E+05  0.0000E+00  0.0000E+00  0.0000E+00  9.0000E+01  9.0000E+01  9.0000E+01  0.0000E+00 -2.7143E+00

  rolling  4.8056E+03  3.1256E+02 -7.0397E+04  4.5567E+03 -7.4954E+04  0.0000E+00  0.0000E+00  0.0000E+00  0.0000E+00
 averages -6.6885E+04  0.0000E+00  5.3857E+04 -1.8205E+05  8.2528E+04  0.0000E+00  0.0000E+00  1.5338E+05  0.0000E+00
           2.3662E+05  0.0000E+00  0.0000E+00  0.0000E+00  9.0000E+01  9.0000E+01  9.0000E+01  0.0000E+00 -2.7143E+00
 ------------------------------------------------------------------------------------------------------------------------
      991  5.5544E+03  3.1427E+02 -6.9777E+04  4.5447E+03 -7.4322E+04  0.0000E+00  0.0000E+00  0.0000E+00  0.0000E+00
   4.955p -6.5572E+04  0.0000E+00  5.2132E+04 -1.8190E+05  8.0042E+04  0.0000E+00  0.0000E+00  1.5399E+05  0.0000E+00
   1.222h  2.3662E+05  0.0000E+00  0.0000E+00  0.0000E+00  9.0000E+01  9.0000E+01  9.0000E+01  0.0000E+00 -2.5340E+00

  rolling  5.5544E+03  3.1427E+02 -6.9777E+04  4.5447E+03 -7.4322E+04  0.0000E+00  0.0000E+00  0.0000E+00  0.0000E+00
 averages -6.5572E+04  0.0000E+00  5.2132E+04 -1.8190E+05  8.0042E+04  0.0000E+00  0.0000E+00  1.5399E+05  0.0000E+00
           2.3662E+05  0.0000E+00  0.0000E+00  0.0000E+00  9.0000E+01  9.0000E+01  9.0000E+01  0.0000E+00 -2.5340E+00
 ------------------------------------------------------------------------------------------------------------------------
      992  6.2268E+03  3.1563E+02 -6.9221E+04  4.5308E+03 -7.3751E+04  0.0000E+00  0.0000E+00  0.0000E+00  0.0000E+00
   4.960p -6.4147E+04  0.0000E+00  4.9803E+04 -1.8172E+05  7.7477E+04  0.0000E+00  0.0000E+00  1.5405E+05  0.0000E+00
   1.223h  2.3662E+05  0.0000E+00  0.0000E+00  0.0000E+00  9.0000E+01  9.0000E+01  9.0000E+01  0.0000E+00 -2.2983E+00

  rolling  6.2268E+03  3.1563E+02 -6.9221E+04  4.5308E+03 -7.3751E+04  0.0000E+00  0.0000E+00  0.0000E+00  0.0000E+00
 averages -6.4147E+04  0.0000E+00  4.9803E+04 -1.8172E+05  7.7477E+04  0.0000E+00  0.0000E+00  1.5405E+05  0.0000E+00
           2.3662E+05  0.0000E+00  0.0000E+00  0.0000E+00  9.0000E+01  9.0000E+01  9.0000E+01  0.0000E+00 -2.2983E+00
 ------------------------------------------------------------------------------------------------------------------------
 ------------------------------------------------------------------------------------------------------------------------

     step     eng_tot    temp_tot     eng_cfg     eng_vdw     eng_cou     eng_bnd     eng_ang     eng_dih     eng_tet
 time          eng_pv    temp_rot     vir_cfg     vir_vdw     vir_cou     vir_bnd     vir_ang     vir_con     vir_tet
 cpu time      volume    temp_shl     eng_shl     vir_shl       alpha        beta       gamma     vir_pmf       press

 ------------------------------------------------------------------------------------------------------------------------
      993  5.9640E+03  3.1633E+02 -6.9574E+04  4.5168E+03 -7.4090E+04  0.0000E+00  0.0000E+00  0.0000E+00  0.0000E+00
   4.965p -6.3395E+04  0.0000E+00  4.6634E+04 -1.8155E+05  7.4324E+04  0.0000E+00  0.0000E+00  1.5386E+05  0.0000E+00
   1.224h  2.3662E+05  0.0000E+00  0.0000E+00  0.0000E+00  9.0000E+01  9.0000E+01  9.0000E+01  0.0000E+00 -1.9866E+00

  rolling  5.9640E+03  3.1633E+02 -6.9574E+04  4.5168E+03 -7.4090E+04  0.0000E+00  0.0000E+00  0.0000E+00  0.0000E+00
 averages -6.3395E+04  0.0000E+00  4.6634E+04 -1.8155E+05  7.4324E+04  0.0000E+00  0.0000E+00  1.5386E+05  0.0000E+00
           2.3662E+05  0.0000E+00  0.0000E+00  0.0000E+00  9.0000E+01  9.0000E+01  9.0000E+01  0.0000E+00 -1.9866E+00
 ------------------------------------------------------------------------------------------------------------------------
      994  5.6628E+03  3.1622E+02 -6.9933E+04  4.5053E+03 -7.4438E+04  0.0000E+00  0.0000E+00  0.0000E+00  0.0000E+00
   4.970p -6.4839E+04  0.0000E+00  4.9865E+04 -1.8140E+05  7.6692E+04  0.0000E+00  0.0000E+00  1.5458E+05  0.0000E+00
   1.226h  2.3662E+05  0.0000E+00  0.0000E+00  0.0000E+00  9.0000E+01  9.0000E+01  9.0000E+01  0.0000E+00 -2.2995E+00

  rolling  5.6628E+03  3.1622E+02 -6.9933E+04  4.5053E+03 -7.4438E+04  0.0000E+00  0.0000E+00  0.0000E+00  0.0000E+00
 averages -6.4839E+04  0.0000E+00  4.9865E+04 -1.8140E+05  7.6692E+04  0.0000E+00  0.0000E+00  1.5458E+05  0.0000E+00
           2.3662E+05  0.0000E+00  0.0000E+00  0.0000E+00  9.0000E+01  9.0000E+01  9.0000E+01  0.0000E+00 -2.2995E+00
 ------------------------------------------------------------------------------------------------------------------------
      995  5.4837E+03  3.1563E+02 -7.0151E+04  4.4942E+03 -7.4645E+04  0.0000E+00  0.0000E+00  0.0000E+00  0.0000E+00
   4.975p -6.5358E+04  0.0000E+00  5.0645E+04 -1.8126E+05  7.6939E+04  0.0000E+00  0.0000E+00  1.5496E+05  0.0000E+00
   1.227h  2.3662E+05  0.0000E+00  0.0000E+00  0.0000E+00  9.0000E+01  9.0000E+01  9.0000E+01  0.0000E+00 -2.3796E+00

  rolling  5.4837E+03  3.1563E+02 -7.0151E+04  4.4942E+03 -7.4645E+04  0.0000E+00  0.0000E+00  0.0000E+00  0.0000E+00
 averages -6.5358E+04  0.0000E+00  5.0645E+04 -1.8126E+05  7.6939E+04  0.0000E+00  0.0000E+00  1.5496E+05  0.0000E+00
           2.3662E+05  0.0000E+00  0.0000E+00  0.0000E+00  9.0000E+01  9.0000E+01  9.0000E+01  0.0000E+00 -2.3796E+00
 ------------------------------------------------------------------------------------------------------------------------
      996  6.1631E+03  3.1560E+02 -6.9535E+04  4.4786E+03 -7.4014E+04  0.0000E+00  0.0000E+00  0.0000E+00  0.0000E+00
   4.980p -6.4344E+04  0.0000E+00  4.9446E+04 -1.8105E+05  7.6171E+04  0.0000E+00  0.0000E+00  1.5432E+05  0.0000E+00
   1.228h  2.3662E+05  0.0000E+00  0.0000E+00  0.0000E+00  9.0000E+01  9.0000E+01  9.0000E+01  0.0000E+00 -2.2640E+00

  rolling  6.1631E+03  3.1560E+02 -6.9535E+04  4.4786E+03 -7.4014E+04  0.0000E+00  0.0000E+00  0.0000E+00  0.0000E+00
 averages -6.4344E+04  0.0000E+00  4.9446E+04 -1.8105E+05  7.6171E+04  0.0000E+00  0.0000E+00  1.5432E+05  0.0000E+00
           2.3662E+05  0.0000E+00  0.0000E+00  0.0000E+00  9.0000E+01  9.0000E+01  9.0000E+01  0.0000E+00 -2.2640E+00
 ------------------------------------------------------------------------------------------------------------------------
      997  6.4175E+03  3.1628E+02 -6.9375E+04  4.4548E+03 -7.3830E+04  0.0000E+00  0.0000E+00  0.0000E+00  0.0000E+00
   4.985p -6.4433E+04  0.0000E+00  5.0335E+04 -1.8072E+05  7.6400E+04  0.0000E+00  0.0000E+00  1.5466E+05  0.0000E+00
   1.229h  2.3662E+05  0.0000E+00  0.0000E+00  0.0000E+00  9.0000E+01  9.0000E+01  9.0000E+01  0.0000E+00 -2.3444E+00

  rolling  6.4175E+03  3.1628E+02 -6.9375E+04  4.4548E+03 -7.3830E+04  0.0000E+00  0.0000E+00  0.0000E+00  0.0000E+00
 averages -6.4433E+04  0.0000E+00  5.0335E+04 -1.8072E+05  7.6400E+04  0.0000E+00  0.0000E+00  1.5466E+05  0.0000E+00
           2.3662E+05  0.0000E+00  0.0000E+00  0.0000E+00  9.0000E+01  9.0000E+01  9.0000E+01  0.0000E+00 -2.3444E+00
 ------------------------------------------------------------------------------------------------------------------------
      998  7.0269E+03  3.1694E+02 -6.8860E+04  4.4239E+03 -7.3284E+04  0.0000E+00  0.0000E+00  0.0000E+00  0.0000E+00
   4.990p -6.4147E+04  0.0000E+00  5.1157E+04 -1.8031E+05  7.6148E+04  0.0000E+00  0.0000E+00  1.5532E+05  0.0000E+00
   1.230h  2.3662E+05  0.0000E+00  0.0000E+00  0.0000E+00  9.0000E+01  9.0000E+01  9.0000E+01  0.0000E+00 -2.4186E+00

  rolling  7.0269E+03  3.1694E+02 -6.8860E+04  4.4239E+03 -7.3284E+04  0.0000E+00  0.0000E+00  0.0000E+00  0.0000E+00
 averages -6.4147E+04  0.0000E+00  5.1157E+04 -1.8031E+05  7.6148E+04  0.0000E+00  0.0000E+00  1.5532E+05  0.0000E+00
           2.3662E+05  0.0000E+00  0.0000E+00  0.0000E+00  9.0000E+01  9.0000E+01  9.0000E+01  0.0000E+00 -2.4186E+00
 ------------------------------------------------------------------------------------------------------------------------
      999  7.5421E+03  3.1765E+02 -6.8442E+04  4.3923E+03 -7.2835E+04  0.0000E+00  0.0000E+00  0.0000E+00  0.0000E+00
   4.995p -6.4883E+04  0.0000E+00  5.4763E+04 -1.7989E+05  7.9366E+04  0.0000E+00  0.0000E+00  1.5528E+05  0.0000E+00
   1.232h  2.3662E+05  0.0000E+00  0.0000E+00  0.0000E+00  9.0000E+01  9.0000E+01  9.0000E+01  0.0000E+00 -2.7613E+00

  rolling  7.5421E+03  3.1765E+02 -6.8442E+04  4.3923E+03 -7.2835E+04  0.0000E+00  0.0000E+00  0.0000E+00  0.0000E+00
 averages -6.4883E+04  0.0000E+00  5.4763E+04 -1.7989E+05  7.9366E+04  0.0000E+00  0.0000E+00  1.5528E+05  0.0000E+00
           2.3662E+05  0.0000E+00  0.0000E+00  0.0000E+00  9.0000E+01  9.0000E+01  9.0000E+01  0.0000E+00 -2.7613E+00
 ------------------------------------------------------------------------------------------------------------------------
     1000  7.7810E+03  3.1986E+02 -6.8365E+04  4.3682E+03 -7.2733E+04  0.0000E+00  0.0000E+00  0.0000E+00  0.0000E+00
   5.000p -6.5283E+04  0.0000E+00  5.6651E+04 -1.7956E+05  7.9681E+04  0.0000E+00  0.0000E+00  1.5653E+05  0.0000E+00
   1.233h  2.3662E+05  0.0000E+00  0.0000E+00  0.0000E+00  9.0000E+01  9.0000E+01  9.0000E+01  0.0000E+00 -2.9261E+00

  rolling  7.7810E+03  3.1986E+02 -6.8365E+04  4.3682E+03 -7.2733E+04  0.0000E+00  0.0000E+00  0.0000E+00  0.0000E+00
 averages -6.5283E+04  0.0000E+00  5.6651E+04 -1.7956E+05  7.9681E+04  0.0000E+00  0.0000E+00  1.5653E+05  0.0000E+00
           2.3662E+05  0.0000E+00  0.0000E+00  0.0000E+00  9.0000E+01  9.0000E+01  9.0000E+01  0.0000E+00 -2.9261E+00
 ------------------------------------------------------------------------------------------------------------------------


 run terminating. elapsed cpu time =   4.43840E+03, job time =  11.574d, close time = 1000.00s



 run terminated after    1000 steps. final averages calculated over    1000 steps.


 ------------------------------------------------------------------------------------------------------------------------

     step     eng_tot    temp_tot     eng_cfg     eng_vdw     eng_cou     eng_bnd     eng_ang     eng_dih     eng_tet
 time          eng_pv    temp_rot     vir_cfg     vir_vdw     vir_cou     vir_bnd     vir_ang     vir_con     vir_tet
 cpu time      volume    temp_shl     eng_shl     vir_shl       alpha        beta       gamma     vir_pmf       press

 ------------------------------------------------------------------------------------------------------------------------
     1000 -2.4156E+04  3.0799E+02 -6.9155E+04  4.4553E+03 -7.3610E+04  0.0000E+00  0.0000E+00  0.0000E+00  0.0000E+00
   5.000p -6.4894E+04  0.0000E+00  5.0670E+04 -1.8076E+05  7.7411E+04  0.0000E+00  0.0000E+00  1.5402E+05  0.0000E+00
   1.233h  2.3662E+05  0.0000E+00  0.0000E+00  0.0000E+00  9.0000E+01  9.0000E+01  9.0000E+01  0.0000E+00 -2.4428E+00

  r.m.s.   1.8834E+04  7.0068E+00  1.1958E+03  1.7480E+02  1.2409E+03  0.0000E+00  0.0000E+00  0.0000E+00  0.0000E+00
 fluctn.   2.2520E+03  0.0000E+00  4.0003E+03  2.4473E+03  3.0633E+03  0.0000E+00  0.0000E+00  2.4402E+03  0.0000E+00
           1.1330E-10  0.0000E+00  0.0000E+00  0.0000E+00  3.1634E-14  3.1634E-14  3.1634E-14  0.0000E+00  3.9049E-01
 ------------------------------------------------------------------------------------------------------------------------


            Approximate 3D Diffusion  coefficients (10^-9 m^2 / s)

            atom        D 
            OW         9.5691E+00
            HW         9.7663E+00


                Average pressure tensor                                       r.m.s. fluctuations 

           3.0691E+02  1.7491E-03  1.4693E+00                          2.6630E+00  2.1313E+00  2.8647E+00
           1.7491E-03  3.0564E+02  7.4621E-01                          2.1313E+00  2.5687E+00  2.0993E+00
           1.4693E+00  7.4621E-01  3.0791E+02                          2.8647E+00  2.0993E+00  2.8528E+00

            trace/3.   3.0682E+02


 sample of final configuration

      i       x(i)        y(i)        z(i)       vx(i)       vy(i)       vz(i)       fx(i)       fy(i)       fz(i)


      1 -6.6626E+00 -2.4877E+01  1.5920E+01  2.5560E+00 -1.8165E+00  7.2953E+00  4.3422E+03 -4.0380E+03 -3.7965E+03
   1038 -1.9827E+01  8.2838E+00 -1.0099E+01  5.6463E+00  1.8002E+00 -3.0826E+00 -2.8589E+03 -1.2217E+02 -9.0908E+02
   2075  3.4393E+00  2.8499E+01 -1.7989E+01  2.3121E+01  3.0839E+00  5.6014E+00  8.5022E+02 -3.1463E+03  1.0527E+03
   3112 -2.4122E+01 -1.6009E+00 -7.8407E+00 -5.6925E-01  2.7016E+00  2.7695E-01 -3.8381E+03 -9.6250E+03  1.6716E+03
   4149 -2.1764E+00  2.2736E+00  2.6651E+01  1.0933E+01  1.6363E+01  9.3135E+00 -4.1004E+03  3.6776E+02 -3.7451E+03
   5186 -2.5046E+01 -2.8942E+01 -1.9251E+01  4.7267E-01 -1.1078E+01  1.4775E+01  2.2437E+03  4.5337E+03  2.9224E+03
   6223  3.1197E+00  7.6040E+00  2.0685E+01 -4.8245E-01  1.7121E+00  1.5760E+00  3.0824E+03  2.9851E+03  3.9898E+03
   7260  2.2770E+01 -1.9263E+01 -1.6212E+01  6.4702E-01  1.9097E+01  5.0657E+00  2.8024E+03  3.7587E+02 -1.9432E+03
   8297 -1.5143E+01 -1.6069E+01 -2.9069E+01 -3.3475E+01  5.4456E+00  1.2011E+01  1.9167E+03  3.5534E+03  3.0082E+03
   9334  1.8704E+01 -1.8197E+01 -1.2578E+01 -8.2052E-01 -6.2081E+00 -8.0122E-01 -5.3178E+03  3.0136E+03 -3.2980E+03
  10371 -2.9706E+01  2.7885E+01 -2.1817E+01  1.3264E+01  7.3447E+00 -4.1649E+00 -6.3043E+03  5.0534E+03 -2.5469E+03
  11408 -1.1493E+01 -9.0575E+00  3.0095E+01 -8.3248E-01  2.1351E+00 -8.7684E+00  3.3463E+03  1.2004E+03 -5.2141E+03
  12445  2.5222E+00 -2.6114E+01 -2.6626E+01 -6.0713E-01 -3.2107E+00  1.8919E+00  4.1186E+03 -6.5145E+03  3.1584E+03
  13482 -3.0096E+01  8.8006E+00  1.0346E+01  1.2602E+01  2.2484E+01 -2.8234E+01 -3.0892E+03 -1.9881E+02  2.1013E+03
  14519  2.6447E+01 -1.2620E+01 -2.7642E+01 -3.6258E+00  5.5317E+00 -3.8985E+00 -5.3330E+03 -1.5849E+03  6.2813E+03
  15556  2.2287E+01 -1.2655E+01  4.0728E+00  3.6654E+00 -8.8186E-01  9.1322E-01 -7.3860E+03 -2.4155E+03 -6.0599E+03
  16593  2.3265E+00  1.3421E+01 -2.6271E+01  1.5832E+01 -1.1688E+01 -3.0321E+00 -1.3783E+03 -8.1196E+02 -6.6507E+01
  17630 -8.7323E+00 -2.5234E+01  6.7542E+00  3.4285E+00  1.4940E+01  6.4683E+00 -4.9321E+03  1.5252E+03  1.9945E+03
  18667  7.7532E+00  2.1647E+01 -7.4451E+00  6.8350E+00 -3.3714E+00 -5.6130E+00  2.3289E+03 -3.7722E+03 -3.7027E+03
  19704  2.5683E+01  2.4016E+01 -1.9593E+01  1.0378E+01  1.1915E+00 -1.5348E+01  1.2295E+02 -2.3711E+03  3.5730E+03

 time elapsed since job start =        4438.506 seconds

