
                    DL_POLY Classic 1.2

                              Running on    8 nodes


 ************************************************************************************************************************
 ************************************************************************************************************************
 ************************************************************************************************************************
 ***************     TEST CASE 15:  SiC ALLOY WITH TERSOFF POTENTIAL                                      ***************
 ************************************************************************************************************************
 ************************************************************************************************************************
 ************************************************************************************************************************


 SIMULATION CONTROL PARAMETERS


 leapfrog verlet integration selected

 simulation pressure (katm)       0.0000E+00

 simulation temperature           3.0000E+02

 Nose-Hoover  (Melchionna) isotropic N-P-T 
 thermostat relaxation time       1.0000E+00
 barostat relaxation time         1.0000E+00

 selected number of timesteps         1000

 equilibration period                  200

 simulation timestep              1.0000E-03

 temperature scaling on
 temperature scaling interval           10

 data printing interval                100

 statistics file interval               10

 real space cut off               3.1000E+00


 electrostatic potential terms off


 short-range potential terms off

 user allocated job time (d)     11.5741

 job closure time        (s)      99.900


SYSTEM SPECIFICATION

 energy units=electron volts 


 number of molecular types               1

 molecular species type                  1


 name of species:             Carbon                                  

 number of molecules                  1372

 number of atoms/sites                   2


 atomic characteristics:

                      site     name          mass        charge    repeat    freeze

                         1     Si          28.08550     0.00000         1         0
                         2     C           12.01000     0.00000         1         0


 number of specified tersoff atom potentials         2


                atom        key                              parameters


                C         ters    1.39360E+03  3.48790E+00  3.46740E+02  2.21190E+00  1.80000E+00
                                  2.10000E+00  1.57240E-07  7.27510E-01  3.80490E+04  4.34840E+00
                                 -5.70580E-01
                Si        ters    1.83080E+03  2.47990E+00  4.71180E+02  1.73220E+00  2.70000E+00
                                  3.00000E+00  1.10000E-06  7.87340E-01  1.00390E+05  1.62170E+01
                                 -5.98250E-01


 number of tersoff cross terms         3


                atom    atom              parameters


                C       C         1.00000E+00  1.00000E+00
                Si      Si        1.00000E+00  1.00000E+00
                Si      C         9.77600E-01  1.00000E+00

 configuration file name: 

          TEST CASE 15:  SiC ALLOY WITH TERSOFF POTENTIAL                                 


 selected image convention               1


 simulation cell vectors


                        30.385861    0.000000    0.000000
                         0.000000   30.385861    0.000000
                         0.000000    0.000000   30.385861


 system volume            28055.2809065    


 link cell algorithm in use


 total degrees of freedom                      8229.
 rotational degrees of freedom                    0.
 shell pseudo degrees of freedom                  0.


 sample of starting configuration

      i       x(i)        y(i)        z(i)       vx(i)       vy(i)       vz(i)       fx(i)       fy(i)       fz(i)


      1 -1.4655E+01 -1.4635E+01 -1.4647E+01  6.1452E+00 -1.4951E+00 -3.1705E+00 -1.3783E+03  4.8509E+03 -2.2669E+03
    139 -1.2483E+01 -3.7957E+00 -1.6443E+00 -2.9834E+00 -1.0456E+00  2.0697E+00 -4.3186E+03  7.0088E+03  3.4969E+03
    277 -1.4644E+01  4.8910E+00  1.3574E+01 -1.3738E+00  4.1713E+00  4.8873E+00 -1.1939E+04 -1.1287E+04  7.5548E+03
    415 -8.1609E+00 -1.4634E+01 -3.7861E+00  2.7558E-02 -3.0306E+00 -8.1109E-02  5.4267E+03 -9.1587E+02 -7.6077E+03
    553 -1.0316E+01 -6.0475E+00  1.1421E+01 -1.6050E-02 -2.4816E+00 -8.7914E-01  7.7395E+03  1.8352E+04 -1.0474E+04
    691 -8.1199E+00  9.2442E+00 -5.9896E+00 -2.4254E+00 -1.2876E+00 -1.8406E+00 -3.0696E+03  1.9083E+03  8.8090E+03
    829 -5.9168E+00 -1.2500E+01  9.1829E+00 -1.5075E+00  5.4063E+00 -6.2246E-01 -2.5534E+02 -3.2302E+03  1.1375E+03
    967 -3.7889E+00 -1.5510E+00 -8.1363E+00 -1.9973E+00 -1.1752E+00  5.5326E+00 -2.1247E+04 -3.0235E+04 -1.1639E+03
   1105 -5.9389E+00  7.0709E+00  7.0261E+00 -3.3774E-01  3.0345E+00  1.5791E+00 -9.7950E+03 -3.4364E+03  1.0524E+04
   1243  6.1237E-01 -8.1500E+00 -1.0335E+01  3.8167E+00  1.3127E+00 -5.3633E-02 -7.5188E+03  1.1214E+04  4.5256E+03
   1381 -1.6250E+00  5.1012E-01  4.8395E+00 -2.1453E+00 -2.3015E+00 -1.3038E+00 -3.3817E+03 -2.0947E+03 -7.7752E+02
   1519  5.2850E-01  1.1326E+01 -1.2493E+01  3.9886E+00  5.3987E+00  7.2947E-01  7.3686E+01  5.1613E+03  5.1850E+03
   1657  2.7021E+00 -1.0367E+01  2.7015E+00 -4.0453E+00 -5.8702E+00  1.4730E+00 -6.7049E+02  4.6574E+03  6.4195E+03
   1795  4.8923E+00  4.9091E+00 -1.4655E+01 -7.8334E+00  1.6210E+00 -5.1422E+00  4.8040E+03 -7.6094E+03 -9.1697E+03
   1933  2.6994E+00  1.3482E+01  5.4773E-01  9.4061E-01  8.3736E-01 -3.4218E+00 -7.3149E+03  1.9423E+04 -3.2124E+02
   2071  9.2220E+00 -1.0299E+01  1.3580E+01 -5.8706E-01 -2.5990E+00  7.8584E-01 -1.1496E+03 -1.6587E+03  9.8398E+03
   2209  7.0664E+00  2.6469E+00 -1.6133E+00 -2.9417E+00  8.9972E-01 -2.3294E+00 -1.0113E+04  3.7195E+04 -3.2026E+03
   2347  9.2263E+00  1.3586E+01  1.1387E+01 -3.9537E-01 -7.3159E-01  2.0479E+00 -1.8937E+03  9.8353E+03 -7.2418E+02
   2485  1.1410E+01 -3.8524E+00 -3.7719E+00 -1.4897E+00  3.1475E+00 -3.8564E+00 -7.4184E+03  2.4376E+03 -9.1431E+03
   2623  1.3612E+01  2.7395E+00  9.2075E+00 -1.4091E+00 -4.2897E+00 -7.1399E-01 -1.6060E+04 -1.6850E+04  6.0836E+03


long range correction for: vdw energy     0.000000E+00
                         : vdw pressure  -0.000000E+00

 time elapsed since job start =           1.555 seconds

 ------------------------------------------------------------------------------------------------------------------------

     step     eng_tot    temp_tot     eng_cfg     eng_vdw     eng_cou     eng_bnd     eng_ang     eng_dih     eng_tet
 time          eng_pv    temp_rot     vir_cfg     vir_vdw     vir_cou     vir_bnd     vir_ang     vir_con     vir_tet
 cpu time      volume    temp_shl     eng_shl     vir_shl       alpha        beta       gamma     vir_pmf       press

 ------------------------------------------------------------------------------------------------------------------------
        1 -1.6710E+04  3.0222E+02 -1.6817E+04 -1.6817E+04  0.0000E+00  0.0000E+00  0.0000E+00  0.0000E+00  0.0000E+00
   1.000f -1.6725E+04  0.0000E+00  2.5891E+02  2.5891E+02  0.0000E+00  0.0000E+00  0.0000E+00  0.0000E+00  0.0000E+00
   1.571s  2.8055E+04  0.0000E+00  0.0000E+00  0.0000E+00  9.0000E+01  9.0000E+01  9.0000E+01  0.0000E+00 -8.3791E-01

  rolling -1.6710E+04  3.0222E+02 -1.6817E+04 -1.6817E+04  0.0000E+00  0.0000E+00  0.0000E+00  0.0000E+00  0.0000E+00
 averages -1.6725E+04  0.0000E+00  2.5891E+02  2.5891E+02  0.0000E+00  0.0000E+00  0.0000E+00  0.0000E+00  0.0000E+00
           2.8055E+04  0.0000E+00  0.0000E+00  0.0000E+00  9.0000E+01  9.0000E+01  9.0000E+01  0.0000E+00 -8.3791E-01
 ------------------------------------------------------------------------------------------------------------------------
      100 -1.6711E+04  2.9439E+02 -1.6815E+04 -1.6815E+04  0.0000E+00  0.0000E+00  0.0000E+00  0.0000E+00  0.0000E+00
 100.000f -1.6706E+04  0.0000E+00  1.9500E+02  1.9500E+02  0.0000E+00  0.0000E+00  0.0000E+00  0.0000E+00  0.0000E+00
   2.995s  2.8059E+04  0.0000E+00  0.0000E+00  0.0000E+00  9.0000E+01  9.0000E+01  9.0000E+01  0.0000E+00  2.5837E-01

  rolling -1.6711E+04  2.9920E+02 -1.6817E+04 -1.6817E+04  0.0000E+00  0.0000E+00  0.0000E+00  0.0000E+00  0.0000E+00
 averages -1.6706E+04  0.0000E+00  1.9747E+02  1.9747E+02  0.0000E+00  0.0000E+00  0.0000E+00  0.0000E+00  0.0000E+00
           2.8055E+04  0.0000E+00  0.0000E+00  0.0000E+00  9.0000E+01  9.0000E+01  9.0000E+01  0.0000E+00  2.7617E-01
 ------------------------------------------------------------------------------------------------------------------------
      200 -1.6709E+04  3.0467E+02 -1.6818E+04 -1.6818E+04  0.0000E+00  0.0000E+00  0.0000E+00  0.0000E+00  0.0000E+00
 200.000f -1.6738E+04  0.0000E+00  3.0206E+02  3.0206E+02  0.0000E+00  0.0000E+00  0.0000E+00  0.0000E+00  0.0000E+00
   4.443s  2.8051E+04  0.0000E+00  0.0000E+00  0.0000E+00  9.0000E+01  9.0000E+01  9.0000E+01  0.0000E+00 -1.6162E+00

  rolling -1.6710E+04  2.9890E+02 -1.6816E+04 -1.6816E+04  0.0000E+00  0.0000E+00  0.0000E+00  0.0000E+00  0.0000E+00
 averages -1.6724E+04  0.0000E+00  2.5353E+02  2.5353E+02  0.0000E+00  0.0000E+00  0.0000E+00  0.0000E+00  0.0000E+00
           2.8055E+04  0.0000E+00  0.0000E+00  0.0000E+00  9.0000E+01  9.0000E+01  9.0000E+01  0.0000E+00 -7.8092E-01
 ------------------------------------------------------------------------------------------------------------------------


 switching off temperature scaling at step    200


 ------------------------------------------------------------------------------------------------------------------------
      300 -1.6712E+04  2.9442E+02 -1.6816E+04 -1.6816E+04  0.0000E+00  0.0000E+00  0.0000E+00  0.0000E+00  0.0000E+00
 300.000f -1.6700E+04  0.0000E+00  1.7430E+02  1.7430E+02  0.0000E+00  0.0000E+00  0.0000E+00  0.0000E+00  0.0000E+00
   5.892s  2.8057E+04  0.0000E+00  0.0000E+00  0.0000E+00  9.0000E+01  9.0000E+01  9.0000E+01  0.0000E+00  6.4783E-01

  rolling -1.6712E+04  2.9661E+02 -1.6817E+04 -1.6817E+04  0.0000E+00  0.0000E+00  0.0000E+00  0.0000E+00  0.0000E+00
 averages -1.6714E+04  0.0000E+00  2.1899E+02  2.1899E+02  0.0000E+00  0.0000E+00  0.0000E+00  0.0000E+00  0.0000E+00
           2.8055E+04  0.0000E+00  0.0000E+00  0.0000E+00  9.0000E+01  9.0000E+01  9.0000E+01  0.0000E+00 -1.6240E-01
 ------------------------------------------------------------------------------------------------------------------------
      400 -1.6712E+04  2.9594E+02 -1.6816E+04 -1.6816E+04  0.0000E+00  0.0000E+00  0.0000E+00  0.0000E+00  0.0000E+00
 400.000f -1.6745E+04  0.0000E+00  3.1082E+02  3.1082E+02  0.0000E+00  0.0000E+00  0.0000E+00  0.0000E+00  0.0000E+00
   7.344s  2.8057E+04  0.0000E+00  0.0000E+00  0.0000E+00  9.0000E+01  9.0000E+01  9.0000E+01  0.0000E+00 -1.8967E+00

  rolling -1.6712E+04  2.9702E+02 -1.6817E+04 -1.6817E+04  0.0000E+00  0.0000E+00  0.0000E+00  0.0000E+00  0.0000E+00
 averages -1.6707E+04  0.0000E+00  1.9660E+02  1.9660E+02  0.0000E+00  0.0000E+00  0.0000E+00  0.0000E+00  0.0000E+00
           2.8046E+04  0.0000E+00  0.0000E+00  0.0000E+00  9.0000E+01  9.0000E+01  9.0000E+01  0.0000E+00  2.6396E-01
 ------------------------------------------------------------------------------------------------------------------------
      500 -1.6712E+04  2.9851E+02 -1.6817E+04 -1.6817E+04  0.0000E+00  0.0000E+00  0.0000E+00  0.0000E+00  0.0000E+00
 500.000f -1.6682E+04  0.0000E+00  1.2402E+02  1.2402E+02  0.0000E+00  0.0000E+00  0.0000E+00  0.0000E+00  0.0000E+00
   8.797s  2.8041E+04  0.0000E+00  0.0000E+00  0.0000E+00  9.0000E+01  9.0000E+01  9.0000E+01  0.0000E+00  1.6478E+00

  rolling -1.6712E+04  2.9711E+02 -1.6817E+04 -1.6817E+04  0.0000E+00  0.0000E+00  0.0000E+00  0.0000E+00  0.0000E+00
 averages -1.6712E+04  0.0000E+00  2.1328E+02  2.1328E+02  0.0000E+00  0.0000E+00  0.0000E+00  0.0000E+00  0.0000E+00
           2.8047E+04  0.0000E+00  0.0000E+00  0.0000E+00  9.0000E+01  9.0000E+01  9.0000E+01  0.0000E+00 -4.8596E-02
 ------------------------------------------------------------------------------------------------------------------------
      600 -1.6712E+04  2.9417E+02 -1.6816E+04 -1.6816E+04  0.0000E+00  0.0000E+00  0.0000E+00  0.0000E+00  0.0000E+00
 600.000f -1.6716E+04  0.0000E+00  2.2407E+02  2.2407E+02  0.0000E+00  0.0000E+00  0.0000E+00  0.0000E+00  0.0000E+00
  10.244s  2.8047E+04  0.0000E+00  0.0000E+00  0.0000E+00  9.0000E+01  9.0000E+01  9.0000E+01  0.0000E+00 -2.9058E-01

  rolling -1.6712E+04  2.9674E+02 -1.6817E+04 -1.6817E+04  0.0000E+00  0.0000E+00  0.0000E+00  0.0000E+00  0.0000E+00
 averages -1.6718E+04  0.0000E+00  2.2920E+02  2.2920E+02  0.0000E+00  0.0000E+00  0.0000E+00  0.0000E+00  0.0000E+00
           2.8053E+04  0.0000E+00  0.0000E+00  0.0000E+00  9.0000E+01  9.0000E+01  9.0000E+01  0.0000E+00 -3.5248E-01
 ------------------------------------------------------------------------------------------------------------------------
      700 -1.6712E+04  2.9635E+02 -1.6816E+04 -1.6816E+04  0.0000E+00  0.0000E+00  0.0000E+00  0.0000E+00  0.0000E+00
 700.000f -1.6764E+04  0.0000E+00  3.6778E+02  3.6778E+02  0.0000E+00  0.0000E+00  0.0000E+00  0.0000E+00  0.0000E+00
  11.704s  2.8073E+04  0.0000E+00  0.0000E+00  0.0000E+00  9.0000E+01  9.0000E+01  9.0000E+01  0.0000E+00 -2.9595E+00

  rolling -1.6712E+04  2.9774E+02 -1.6817E+04 -1.6817E+04  0.0000E+00  0.0000E+00  0.0000E+00  0.0000E+00  0.0000E+00
 averages -1.6709E+04  0.0000E+00  2.0519E+02  2.0519E+02  0.0000E+00  0.0000E+00  0.0000E+00  0.0000E+00  0.0000E+00
           2.8051E+04  0.0000E+00  0.0000E+00  0.0000E+00  9.0000E+01  9.0000E+01  9.0000E+01  0.0000E+00  1.1279E-01
 ------------------------------------------------------------------------------------------------------------------------
 ------------------------------------------------------------------------------------------------------------------------

     step     eng_tot    temp_tot     eng_cfg     eng_vdw     eng_cou     eng_bnd     eng_ang     eng_dih     eng_tet
 time          eng_pv    temp_rot     vir_cfg     vir_vdw     vir_cou     vir_bnd     vir_ang     vir_con     vir_tet
 cpu time      volume    temp_shl     eng_shl     vir_shl       alpha        beta       gamma     vir_pmf       press

 ------------------------------------------------------------------------------------------------------------------------
      800 -1.6712E+04  2.9451E+02 -1.6816E+04 -1.6816E+04  0.0000E+00  0.0000E+00  0.0000E+00  0.0000E+00  0.0000E+00
 800.000f -1.6742E+04  0.0000E+00  3.0230E+02  3.0230E+02  0.0000E+00  0.0000E+00  0.0000E+00  0.0000E+00  0.0000E+00
  13.153s  2.8072E+04  0.0000E+00  0.0000E+00  0.0000E+00  9.0000E+01  9.0000E+01  9.0000E+01  0.0000E+00 -1.7547E+00

  rolling -1.6712E+04  2.9777E+02 -1.6817E+04 -1.6817E+04  0.0000E+00  0.0000E+00  0.0000E+00  0.0000E+00  0.0000E+00
 averages -1.6696E+04  0.0000E+00  1.6427E+02  1.6427E+02  0.0000E+00  0.0000E+00  0.0000E+00  0.0000E+00  0.0000E+00
           2.8043E+04  0.0000E+00  0.0000E+00  0.0000E+00  9.0000E+01  9.0000E+01  9.0000E+01  0.0000E+00  8.8253E-01
 ------------------------------------------------------------------------------------------------------------------------
      900 -1.6712E+04  3.0112E+02 -1.6818E+04 -1.6818E+04  0.0000E+00  0.0000E+00  0.0000E+00  0.0000E+00  0.0000E+00
 900.000f -1.6622E+04  0.0000E+00 -5.2907E+01 -5.2907E+01  0.0000E+00  0.0000E+00  0.0000E+00  0.0000E+00  0.0000E+00
  14.614s  2.8029E+04  0.0000E+00  0.0000E+00  0.0000E+00  9.0000E+01  9.0000E+01  9.0000E+01  0.0000E+00  5.0104E+00

  rolling -1.6712E+04  2.9767E+02 -1.6817E+04 -1.6817E+04  0.0000E+00  0.0000E+00  0.0000E+00  0.0000E+00  0.0000E+00
 averages -1.6716E+04  0.0000E+00  2.2548E+02  2.2548E+02  0.0000E+00  0.0000E+00  0.0000E+00  0.0000E+00  0.0000E+00
           2.8059E+04  0.0000E+00  0.0000E+00  0.0000E+00  9.0000E+01  9.0000E+01  9.0000E+01  0.0000E+00 -2.6783E-01
 ------------------------------------------------------------------------------------------------------------------------
     1000 -1.6712E+04  2.9953E+02 -1.6817E+04 -1.6817E+04  0.0000E+00  0.0000E+00  0.0000E+00  0.0000E+00  0.0000E+00
   1.000p -1.6658E+04  0.0000E+00  5.2662E+01  5.2662E+01  0.0000E+00  0.0000E+00  0.0000E+00  0.0000E+00  0.0000E+00
  16.067s  2.8027E+04  0.0000E+00  0.0000E+00  0.0000E+00  9.0000E+01  9.0000E+01  9.0000E+01  0.0000E+00  3.0040E+00

  rolling -1.6712E+04  2.9777E+02 -1.6817E+04 -1.6817E+04  0.0000E+00  0.0000E+00  0.0000E+00  0.0000E+00  0.0000E+00
 averages -1.6729E+04  0.0000E+00  2.6525E+02  2.6525E+02  0.0000E+00  0.0000E+00  0.0000E+00  0.0000E+00  0.0000E+00
           2.8065E+04  0.0000E+00  0.0000E+00  0.0000E+00  9.0000E+01  9.0000E+01  9.0000E+01  0.0000E+00 -1.0140E+00
 ------------------------------------------------------------------------------------------------------------------------


 run terminating. elapsed cpu time =   1.60670E+01, job time =  11.574d, close time =   99.90s



 run terminated after    1000 steps. final averages calculated over     800 steps.


 ------------------------------------------------------------------------------------------------------------------------

     step     eng_tot    temp_tot     eng_cfg     eng_vdw     eng_cou     eng_bnd     eng_ang     eng_dih     eng_tet
 time          eng_pv    temp_rot     vir_cfg     vir_vdw     vir_cou     vir_bnd     vir_ang     vir_con     vir_tet
 cpu time      volume    temp_shl     eng_shl     vir_shl       alpha        beta       gamma     vir_pmf       press

 ------------------------------------------------------------------------------------------------------------------------
     1000 -1.6712E+04  2.9731E+02 -1.6817E+04 -1.6817E+04  0.0000E+00  0.0000E+00  0.0000E+00  0.0000E+00  0.0000E+00
   1.000p -1.6713E+04  0.0000E+00  2.1478E+02  2.1478E+02  0.0000E+00  0.0000E+00  0.0000E+00  0.0000E+00  0.0000E+00
  16.138s  2.8052E+04  0.0000E+00  0.0000E+00  0.0000E+00  9.0000E+01  9.0000E+01  9.0000E+01  0.0000E+00 -7.3259E-02

  r.m.s.   3.0069E-02  3.0960E+00  1.0978E+00  1.0978E+00  0.0000E+00  0.0000E+00  0.0000E+00  0.0000E+00  0.0000E+00
 fluctn.   4.0026E+01  0.0000E+00  1.2019E+02  1.2019E+02  0.0000E+00  0.0000E+00  0.0000E+00  0.0000E+00  0.0000E+00
           1.6443E+01  0.0000E+00  0.0000E+00  0.0000E+00  2.9279E-14  2.9279E-14  2.9279E-14  0.0000E+00  2.2568E+00
 ------------------------------------------------------------------------------------------------------------------------


            Approximate 3D Diffusion  coefficients (10^-9 m^2 / s)

            atom        D 
            Si         2.0681E-03
            C          2.3224E-03


                Average pressure tensor                                       r.m.s. fluctuations 

           3.5542E-02  1.8568E-01  6.1901E-02                          2.5045E+00  1.2798E+00  1.2013E+00
           1.8568E-01 -1.3904E-01 -2.4633E-01                          1.2798E+00  2.3847E+00  1.3800E+00
           6.1901E-02 -2.4633E-01 -1.1628E-01                          1.2013E+00  1.3800E+00  2.3974E+00

            trace/3.  -7.3259E-02


                 Average cell vectors                                         r.m.s. fluctuations 

       30.3848192436        0.0000000000        0.0000000000           5.9361E-03  0.0000E+00  0.0000E+00
        0.0000000000       30.3848192436        0.0000000000           0.0000E+00  5.9361E-03  0.0000E+00
        0.0000000000        0.0000000000       30.3848192436           0.0000E+00  0.0000E+00  5.9361E-03


 sample of final configuration

      i       x(i)        y(i)        z(i)       vx(i)       vy(i)       vz(i)       fx(i)       fy(i)       fz(i)


      1 -1.4617E+01 -1.4678E+01 -1.4611E+01  2.9495E+00 -4.4002E+00 -3.5987E+00 -2.3693E+04 -2.1175E+04 -3.4586E+03
    139 -1.2472E+01 -3.8101E+00 -1.6155E+00  2.7690E+00  3.7905E+00 -2.7701E+00  8.9055E+01  5.5668E+03 -7.1337E+03
    277 -1.4651E+01  4.9343E+00  1.3585E+01 -3.9588E+00  1.3090E+00  6.9134E-01 -1.0974E+04  9.0426E+03  3.5584E+03
    415 -8.1001E+00 -1.4673E+01 -3.7705E+00 -2.8311E+00  1.0554E+01  1.7431E+00 -4.0273E+02  5.9580E+03  1.9393E+03
    553 -1.0296E+01 -5.9775E+00  1.1452E+01 -3.5527E+00 -2.5304E+00 -2.4597E+00 -8.3365E+03  1.8722E+03 -7.6317E+03
    691 -8.1438E+00  9.2255E+00 -5.9672E+00  5.0575E+00  5.8432E+00  8.0285E+00 -3.0120E+03 -5.2567E+03  2.6398E+03
    829 -5.9602E+00 -1.2489E+01  9.2427E+00  5.9301E-02  1.3584E+00 -1.0444E+00 -1.5924E+04 -6.5131E+02  6.9031E+02
    967 -3.7993E+00 -1.6313E+00 -8.1592E+00 -1.4430E+00  5.1247E+00 -7.0991E-01  8.3831E+03 -2.3273E+03  4.9597E+03
   1105 -5.9709E+00  7.0733E+00  7.0933E+00 -3.4150E+00 -1.0279E+00  4.3483E+00 -6.7409E+03 -2.1686E+03 -1.5976E+04
   1243  5.4395E-01 -8.1084E+00 -1.0340E+01  6.3908E+00  4.4292E+00 -3.3050E+00  3.7215E+03  1.1655E+03  8.6568E+03
   1381 -1.6825E+00  5.6121E-01  4.9004E+00 -7.5946E-01  9.8814E-01 -1.6609E+00  6.4069E+03 -3.3039E+03 -6.2820E+03
   1519  5.8695E-01  1.1391E+01 -1.2543E+01  3.1212E+00  5.8770E+00 -1.4165E+00  6.3896E+03  1.0577E+04  1.2366E+04
   1657  2.7319E+00 -1.0301E+01  2.7084E+00  2.4344E+00 -1.7575E+00  7.7482E+00 -5.9793E+02 -6.3471E+03  8.4671E+03
   1795  4.8711E+00  4.9107E+00 -1.4582E+01  1.9968E+00 -1.1264E+00 -3.3157E+00  1.0656E+04 -9.0578E+03 -3.0313E+04
   1933  2.7073E+00  1.3585E+01  5.1482E-01 -2.7992E+00  2.5479E-01 -4.6300E+00 -4.3932E+03 -1.5763E+04  3.7720E+03
   2071  9.2187E+00 -1.0259E+01  1.3536E+01  2.2550E+00 -3.2228E+00  2.8466E+00  8.3269E+03 -4.4549E+03  3.1606E+03
   2209  7.0629E+00  2.6933E+00 -1.5657E+00 -1.7740E+00  1.7912E+00  2.9816E+00  8.7286E+02  2.9780E+02 -1.0538E+04
   2347  9.2452E+00  1.3580E+01  1.1356E+01  4.6917E-01  3.9962E-01  1.8859E+00 -5.9975E+03  7.5901E+03 -3.2951E+03
   2485  1.1368E+01 -3.8161E+00 -3.8154E+00 -1.2376E+00 -2.2299E+00 -7.9274E+00  1.8623E+03  7.6035E+03 -6.8633E+03
   2623  1.3509E+01  2.7738E+00  9.2381E+00 -2.4926E+00  3.1953E+00  6.4828E+00  3.0048E+03 -1.1272E+04 -2.1452E+03

 time elapsed since job start =          16.138 seconds

