
                    DL_POLY Classic 1.2

                              Running on    8 nodes


 ************************************************************************************************************************
 ************************************************************************************************************************
 ************************************************************************************************************************
 ***************     DL_POLY TEST 16: RELAXED SHELL MODEL MgO                                             ***************
 ************************************************************************************************************************
 ************************************************************************************************************************
 ************************************************************************************************************************


 SIMULATION CONTROL PARAMETERS


 leapfrog verlet integration selected

 simulation temperature           3.0000E+03

 simulation pressure (katm)       0.0000E+00

 Berendsen anisotropic N-P-T
 thermostat relaxation time       1.0000E-01
 barostat relaxation time         3.0000E-01

 NST mode 0 X<>Y<>Z

 selected number of timesteps         1000

 equilibration period                  200

 temperature scaling on
 temperature scaling interval           10

 data printing interval                 10

 data stacking interval                100

 statistics file interval               10


 radial distribution functions on 
 g(r) collection interval               10
 g(r) bin width                   5.0000E-02

 simulation timestep              2.0000E-03

 real space cut off               6.0000E+00

 border width of Verlet shell     1.5000E-01

 Ewald sum  precision             1.0000E-05

 Electrostatics : Ewald sum  

 Ewald convergence parameter      4.8831E-01
 Ewald kmax1 kmax2 kmax3         5    5    5

 g(r) printing option on      

 user allocated job time (h)      1.0000

 job closure time        (s)     200.000


SYSTEM SPECIFICATION

 energy units=electron volts 


 number of molecular types               1

 molecular species type                  1


 name of species:             MgO                                     

 number of molecules                    27

 number of atoms/sites                  12


 atomic characteristics:

                      site     name          mass        charge    repeat    freeze

                         1     Mg          24.30500     2.00000         4         0
                         5     O_          15.99940     0.15000         4         0
                         9     O_S          0.00000    -2.15000         4         0

 number of core-shell units              4


 core-shell details:

                           core     shell      parameter
                              5         9        15.7400         0.0000
                              6        10        15.7400         0.0000
                              7        11        15.7400         0.0000
                              8        12        15.7400         0.0000


 number of specified pair potentials         2


                atom 1  atom 2      key                              parameters


                Mg      O_S       buck     8.21600E+02  3.24200E-01  0.00000E+00
                O_S     O_S       buck     2.27644E+04  1.49000E-01  2.03700E+01

  *** warning - undefined atom-atom interactions set to zero ***


relaxed shell model in operation

 configuration file name: 

          DL_POLY TEST CASE 16: RELAXED SHELL MODEL MgO                                   


 selected image convention               3


 simulation cell vectors


                        12.300000    0.000000    0.000000
                         0.000000   12.300000    0.000000
                         0.000000    0.000000   12.300000


 system volume            1860.86700000    


 total degrees of freedom                       645.
 rotational degrees of freedom                    0.
 shell pseudo degrees of freedom                324.


 sample of starting configuration

      i       x(i)        y(i)        z(i)       vx(i)       vy(i)       vz(i)


      1  5.2222E+00  5.1250E+00 -5.0355E+00  2.0279E+01 -5.1444E+00 -9.6466E+00
     18  5.2222E+00 -1.0250E+00 -5.0355E+00 -4.8042E+00  1.3586E+00 -1.1240E+01
     35  5.2222E+00  1.0250E+00 -2.9855E+00  0.0000E+00  0.0000E+00  0.0000E+00
     52 -9.2775E-01 -3.0750E+00 -2.9855E+00  5.4336E+00 -8.7938E+00  5.3955E+00
     69 -9.2775E-01  1.0250E+00 -5.0355E+00  0.0000E+00  0.0000E+00  0.0000E+00
     86 -5.0278E+00 -1.0250E+00 -5.0355E+00  9.7384E+00 -7.6791E+00  4.3110E+00
    103 -2.9778E+00  1.0250E+00 -2.9855E+00 -7.5807E+00  1.0452E+00 -1.4890E+01
    120  3.1722E+00 -5.1250E+00  1.1145E+00  0.0000E+00  0.0000E+00  0.0000E+00
    137  3.1722E+00  1.0250E+00 -9.3553E-01  9.3564E+00 -2.1253E+01  1.6704E+01
    154  1.1222E+00 -5.1250E+00 -9.3553E-01  0.0000E+00  0.0000E+00  0.0000E+00
    171  1.1222E+00  3.0750E+00  1.1145E+00  6.1681E+00  6.1062E+00 -2.1120E+00
    188 -5.0278E+00 -5.1250E+00  1.1145E+00  1.0488E+01 -8.5855E+00 -8.9476E+00
    205 -2.9778E+00  1.0250E+00 -9.3553E-01  1.3066E+01  1.6066E+01 -1.3748E+01
    222  5.2222E+00 -5.1250E+00  3.1645E+00  2.6210E+00  2.2360E+00 -1.9672E+01
    239  5.2222E+00 -3.0750E+00  5.2145E+00  0.0000E+00  0.0000E+00  0.0000E+00
    256 -9.2775E-01  5.1250E+00  5.2145E+00  3.1984E+00 -1.1874E+01 -5.6829E+00
    273 -9.2775E-01 -3.0750E+00  3.1645E+00  0.0000E+00  0.0000E+00  0.0000E+00
    290 -5.0278E+00 -5.1250E+00  3.1645E+00  7.1678E+00 -3.0835E+00 -6.2703E+00
    307 -2.9778E+00 -3.0750E+00  5.2145E+00 -7.0359E+00  7.6031E+00  1.0503E+01
    324 -5.0278E+00  3.0750E+00  5.2145E+00  0.0000E+00  0.0000E+00  0.0000E+00


long range correction for: vdw energy    -0.123802E+01
                         : vdw pressure  -0.210396E+01

 time elapsed since job start =           0.103 seconds

 ------------------------------------------------------------------------------------------------------------------------

     step     eng_tot    temp_tot     eng_cfg     eng_vdw     eng_cou     eng_bnd     eng_ang     eng_dih     eng_tet
 time          eng_pv    temp_rot     vir_cfg     vir_vdw     vir_cou     vir_bnd     vir_ang     vir_con     vir_tet
 cpu time      volume    temp_shl     eng_shl     vir_shl       alpha        beta       gamma     vir_pmf       press

 ------------------------------------------------------------------------------------------------------------------------
        1 -4.2767E+03  3.0000E+03 -4.3600E+03  9.4235E+02 -5.3024E+03  0.0000E+00  0.0000E+00  0.0000E+00  0.0000E+00
   2.000f -3.9727E+03  0.0000E+00 -7.4530E+02 -6.0377E+03  5.2924E+03  0.0000E+00  0.0000E+00  0.0000E+00  0.0000E+00
   0.148s  2.3278E+03  0.0000E+00  0.0000E+00  0.0000E+00  9.0157E+01  8.9925E+01  8.9920E+01  0.0000E+00  2.0652E+02

  rolling -4.2767E+03  3.0000E+03 -4.3600E+03  9.4235E+02 -5.3024E+03  0.0000E+00  0.0000E+00  0.0000E+00  0.0000E+00
 averages -3.9727E+03  0.0000E+00 -7.4530E+02 -6.0377E+03  5.2924E+03  0.0000E+00  0.0000E+00  0.0000E+00  0.0000E+00
           2.3278E+03  0.0000E+00  0.0000E+00  0.0000E+00  9.0157E+01  8.9925E+01  8.9920E+01  0.0000E+00  2.0652E+02
 ------------------------------------------------------------------------------------------------------------------------
       10 -4.2809E+03  8.6724E+02 -4.3050E+03  7.9054E+02 -5.1130E+03  0.0000E+00  0.0000E+00  0.0000E+00  0.0000E+00
  20.000f -4.2866E+03  0.0000E+00  6.5487E+01 -5.0793E+03  5.1098E+03  0.0000E+00  0.0000E+00  0.0000E+00  0.0000E+00
  12.370s  2.1191E+03  0.0000E+00  1.7498E+01  3.4996E+01  8.9826E+01  8.9928E+01  8.9922E+01  0.0000E+00 -4.2988E+00

  rolling -4.2806E+03  2.0192E+03 -4.3367E+03  7.7601E+02 -5.1208E+03  0.0000E+00  0.0000E+00  0.0000E+00  0.0000E+00
 averages -4.2673E+03  0.0000E+00  7.2331E+01 -5.0613E+03  5.1175E+03  0.0000E+00  0.0000E+00  0.0000E+00  0.0000E+00
           2.1169E+03  0.0000E+00  8.0404E+00  1.6081E+01  9.0022E+01  8.9938E+01  8.9939E+01  0.0000E+00  5.5230E+00
 ------------------------------------------------------------------------------------------------------------------------
       20 -4.2159E+03  1.7826E+03 -4.2654E+03  7.9964E+02 -5.0807E+03  0.0000E+00  0.0000E+00  0.0000E+00  0.0000E+00
  40.000f -4.2111E+03  0.0000E+00  8.4754E+01 -5.0168E+03  5.0704E+03  0.0000E+00  0.0000E+00  0.0000E+00  0.0000E+00
  20.323s  2.2640E+03  0.0000E+00  1.5614E+01  3.1229E+01  8.9888E+01  9.0039E+01  8.9957E+01  0.0000E+00  3.3355E+00

  rolling -4.2497E+03  2.1361E+03 -4.3090E+03  7.8506E+02 -5.1068E+03  0.0000E+00  0.0000E+00  0.0000E+00  0.0000E+00
 averages -4.2380E+03  0.0000E+00  8.3616E+01 -5.0436E+03  5.1018E+03  0.0000E+00  0.0000E+00  0.0000E+00  0.0000E+00
           2.1703E+03  0.0000E+00  1.2679E+01  2.5358E+01  8.9871E+01  8.9932E+01  8.9893E+01  0.0000E+00  6.3679E+00
 ------------------------------------------------------------------------------------------------------------------------
       30 -4.1900E+03  2.6815E+03 -4.2645E+03  7.6898E+02 -5.0498E+03  0.0000E+00  0.0000E+00  0.0000E+00  0.0000E+00
  60.000f -4.1863E+03  0.0000E+00  1.3798E+02 -4.8035E+03  4.9089E+03  0.0000E+00  0.0000E+00  0.0000E+00  0.0000E+00
  33.532s  2.3863E+03  0.0000E+00  1.6283E+01  3.2565E+01  9.0032E+01  9.0088E+01  8.9508E+01  0.0000E+00  2.4444E+00

  rolling -4.2297E+03  2.4041E+03 -4.2965E+03  7.7858E+02 -5.0884E+03  0.0000E+00  0.0000E+00  0.0000E+00  0.0000E+00
 averages -4.2191E+03  0.0000E+00  1.0166E+02 -4.9666E+03  5.0418E+03  0.0000E+00  0.0000E+00  0.0000E+00  0.0000E+00
           2.2332E+03  0.0000E+00  1.3231E+01  2.6461E+01  8.9952E+01  8.9972E+01  8.9835E+01  0.0000E+00  6.1708E+00
 ------------------------------------------------------------------------------------------------------------------------
       40 -4.1775E+03  2.6749E+03 -4.2518E+03  7.7530E+02 -5.0460E+03  0.0000E+00  0.0000E+00  0.0000E+00  0.0000E+00
  80.000f -4.1726E+03  0.0000E+00  1.3410E+02 -4.8040E+03  4.9003E+03  0.0000E+00  0.0000E+00  0.0000E+00  0.0000E+00
  43.573s  2.4528E+03  0.0000E+00  1.8921E+01  3.7843E+01  8.9843E+01  8.9770E+01  8.9058E+01  0.0000E+00  3.1325E+00

  rolling -4.2170E+03  2.4775E+03 -4.2859E+03  7.7723E+02 -5.0778E+03  0.0000E+00  0.0000E+00  0.0000E+00  0.0000E+00
 averages -4.2078E+03  0.0000E+00  1.1023E+02 -4.9262E+03  5.0071E+03  0.0000E+00  0.0000E+00  0.0000E+00  0.0000E+00
           2.2811E+03  0.0000E+00  1.4661E+01  2.9323E+01  8.9919E+01  8.9972E+01  8.9707E+01  0.0000E+00  5.3903E+00
 ------------------------------------------------------------------------------------------------------------------------
       50 -4.1689E+03  2.9550E+03 -4.2510E+03  7.6912E+02 -5.0384E+03  0.0000E+00  0.0000E+00  0.0000E+00  0.0000E+00
 100.000f -4.1674E+03  0.0000E+00  1.5991E+02 -4.7555E+03  4.8789E+03  0.0000E+00  0.0000E+00  0.0000E+00  0.0000E+00
  53.987s  2.5086E+03  0.0000E+00  1.8268E+01  3.6535E+01  8.9935E+01  8.9574E+01  8.8936E+01  0.0000E+00  9.1120E-01

  rolling -4.2074E+03  2.6013E+03 -4.2797E+03  7.7546E+02 -5.0702E+03  0.0000E+00  0.0000E+00  0.0000E+00  0.0000E+00
 averages -4.1993E+03  0.0000E+00  1.2025E+02 -4.8926E+03  4.9828E+03  0.0000E+00  0.0000E+00  0.0000E+00  0.0000E+00
           2.3233E+03  0.0000E+00  1.5015E+01  3.0031E+01  8.9919E+01  8.9907E+01  8.9535E+01  0.0000E+00  4.8121E+00
 ------------------------------------------------------------------------------------------------------------------------
       60 -4.1666E+03  3.2058E+03 -4.2557E+03  7.6773E+02 -5.0417E+03  0.0000E+00  0.0000E+00  0.0000E+00  0.0000E+00
 120.000f -4.1640E+03  0.0000E+00  1.7043E+02 -4.7334E+03  4.8672E+03  0.0000E+00  0.0000E+00  0.0000E+00  0.0000E+00
   1.087m  2.5480E+03  0.0000E+00  1.8307E+01  3.6614E+01  9.0845E+01  8.8974E+01  8.9404E+01  0.0000E+00  1.6033E+00

  rolling -4.2006E+03  2.6643E+03 -4.2747E+03  7.7474E+02 -5.0653E+03  0.0000E+00  0.0000E+00  0.0000E+00  0.0000E+00
 averages -4.1934E+03  0.0000E+00  1.2642E+02 -4.8700E+03  4.9646E+03  0.0000E+00  0.0000E+00  0.0000E+00  0.0000E+00
           2.3576E+03  0.0000E+00  1.5912E+01  3.1825E+01  9.0001E+01  8.9780E+01  8.9477E+01  0.0000E+00  4.2989E+00
 ------------------------------------------------------------------------------------------------------------------------
       70 -4.1737E+03  3.0003E+03 -4.2571E+03  7.6713E+02 -5.0442E+03  0.0000E+00  0.0000E+00  0.0000E+00  0.0000E+00
 140.000f -4.1759E+03  0.0000E+00  1.7325E+02 -4.7368E+03  4.8702E+03  0.0000E+00  0.0000E+00  0.0000E+00  0.0000E+00
   1.244m  2.5364E+03  0.0000E+00  1.9912E+01  3.9824E+01  9.0248E+01  8.9844E+01  8.9607E+01  0.0000E+00 -1.3486E+00

  rolling -4.1967E+03  2.7198E+03 -4.2723E+03  7.7372E+02 -5.0622E+03  0.0000E+00  0.0000E+00  0.0000E+00  0.0000E+00
 averages -4.1907E+03  0.0000E+00  1.3295E+02 -4.8504E+03  4.9510E+03  0.0000E+00  0.0000E+00  0.0000E+00  0.0000E+00
           2.3843E+03  0.0000E+00  1.6175E+01  3.2350E+01  9.0090E+01  8.9732E+01  8.9498E+01  0.0000E+00  3.6121E+00
 ------------------------------------------------------------------------------------------------------------------------
 ------------------------------------------------------------------------------------------------------------------------

     step     eng_tot    temp_tot     eng_cfg     eng_vdw     eng_cou     eng_bnd     eng_ang     eng_dih     eng_tet
 time          eng_pv    temp_rot     vir_cfg     vir_vdw     vir_cou     vir_bnd     vir_ang     vir_con     vir_tet
 cpu time      volume    temp_shl     eng_shl     vir_shl       alpha        beta       gamma     vir_pmf       press

 ------------------------------------------------------------------------------------------------------------------------
       80 -4.1754E+03  3.2110E+03 -4.2646E+03  7.6205E+02 -5.0436E+03  0.0000E+00  0.0000E+00  0.0000E+00  0.0000E+00
 160.000f -4.1776E+03  0.0000E+00  1.8515E+02 -4.7210E+03  4.8722E+03  0.0000E+00  0.0000E+00  0.0000E+00  0.0000E+00
   1.422m  2.5136E+03  0.0000E+00  1.6953E+01  3.3906E+01  9.0137E+01  9.0269E+01  8.9542E+01  0.0000E+00 -1.3991E+00

  rolling -4.1940E+03  2.7668E+03 -4.2709E+03  7.7260E+02 -5.0600E+03  0.0000E+00  0.0000E+00  0.0000E+00  0.0000E+00
 averages -4.1889E+03  0.0000E+00  1.3844E+02 -4.8357E+03  4.9410E+03  0.0000E+00  0.0000E+00  0.0000E+00  0.0000E+00
           2.4017E+03  0.0000E+00  1.6543E+01  3.3086E+01  9.0087E+01  8.9789E+01  8.9498E+01  0.0000E+00  3.0356E+00
 ------------------------------------------------------------------------------------------------------------------------
       90 -4.1817E+03  2.9302E+03 -4.2632E+03  7.6686E+02 -5.0469E+03  0.0000E+00  0.0000E+00  0.0000E+00  0.0000E+00
 180.000f -4.1803E+03  0.0000E+00  1.5860E+02 -4.7573E+03  4.8822E+03  0.0000E+00  0.0000E+00  0.0000E+00  0.0000E+00
   1.598m  2.4903E+03  0.0000E+00  1.6854E+01  3.3707E+01  9.0141E+01  9.0170E+01  8.9835E+01  0.0000E+00  9.0436E-01

  rolling -4.1926E+03  2.7832E+03 -4.2700E+03  7.7190E+02 -5.0585E+03  0.0000E+00  0.0000E+00  0.0000E+00  0.0000E+00
 averages -4.1883E+03  0.0000E+00  1.4160E+02 -4.8259E+03  4.9343E+03  0.0000E+00  0.0000E+00  0.0000E+00  0.0000E+00
           2.4119E+03  0.0000E+00  1.6630E+01  3.3260E+01  9.0093E+01  8.9831E+01  8.9526E+01  0.0000E+00  2.5830E+00
 ------------------------------------------------------------------------------------------------------------------------
      100 -4.1793E+03  2.8940E+03 -4.2597E+03  7.6723E+02 -5.0441E+03  0.0000E+00  0.0000E+00  0.0000E+00  0.0000E+00
 200.000f -4.1794E+03  0.0000E+00  1.6109E+02 -4.7451E+03  4.8720E+03  0.0000E+00  0.0000E+00  0.0000E+00  0.0000E+00
   1.751m  2.5232E+03  0.0000E+00  1.7092E+01  3.4184E+01  9.0049E+01  8.9993E+01  8.9642E+01  0.0000E+00 -4.8248E-02

  rolling -4.1913E+03  2.7988E+03 -4.2691E+03  7.7150E+02 -5.0572E+03  0.0000E+00  0.0000E+00  0.0000E+00  0.0000E+00
 averages -4.1872E+03  0.0000E+00  1.4308E+02 -4.8187E+03  4.9286E+03  0.0000E+00  0.0000E+00  0.0000E+00  0.0000E+00
           2.4219E+03  0.0000E+00  1.6617E+01  3.3235E+01  9.0101E+01  8.9871E+01  8.9541E+01  0.0000E+00  2.4706E+00
 ------------------------------------------------------------------------------------------------------------------------
      110 -4.1774E+03  3.1802E+03 -4.2658E+03  7.5681E+02 -5.0400E+03  0.0000E+00  0.0000E+00  0.0000E+00  0.0000E+00
 220.000f -4.1808E+03  0.0000E+00  1.8689E+02 -4.7136E+03  4.8656E+03  0.0000E+00  0.0000E+00  0.0000E+00  0.0000E+00
   1.922m  2.4795E+03  0.0000E+00  1.7420E+01  3.4839E+01  8.9944E+01  8.9408E+01  8.9902E+01  0.0000E+00 -2.1521E+00

  rolling -4.1810E+03  2.8952E+03 -4.2614E+03  7.7012E+02 -5.0492E+03  0.0000E+00  0.0000E+00  0.0000E+00  0.0000E+00
 averages -4.1784E+03  0.0000E+00  1.5335E+02 -4.7854E+03  4.9035E+03  0.0000E+00  0.0000E+00  0.0000E+00  0.0000E+00
           2.4605E+03  0.0000E+00  1.7638E+01  3.5276E+01  9.0093E+01  8.9832E+01  8.9524E+01  0.0000E+00  1.7241E+00
 ------------------------------------------------------------------------------------------------------------------------
      120 -4.1857E+03  3.1511E+03 -4.2732E+03  7.5799E+02 -5.0466E+03  0.0000E+00  0.0000E+00  0.0000E+00  0.0000E+00
 240.000f -4.1855E+03  0.0000E+00  1.7465E+02 -4.7256E+03  4.8695E+03  0.0000E+00  0.0000E+00  0.0000E+00  0.0000E+00
   2.085m  2.4598E+03  0.0000E+00  1.5394E+01  3.0787E+01  9.0068E+01  9.0167E+01  8.9658E+01  0.0000E+00  1.0692E-01

  rolling -4.1776E+03  2.9856E+03 -4.2606E+03  7.6640E+02 -5.0444E+03  0.0000E+00  0.0000E+00  0.0000E+00  0.0000E+00
 averages -4.1762E+03  0.0000E+00  1.6183E+02 -4.7550E+03  4.8819E+03  0.0000E+00  0.0000E+00  0.0000E+00  0.0000E+00
           2.4843E+03  0.0000E+00  1.7485E+01  3.4969E+01  9.0114E+01  8.9818E+01  8.9515E+01  0.0000E+00  9.1410E-01
 ------------------------------------------------------------------------------------------------------------------------
      130 -4.1919E+03  2.9037E+03 -4.2726E+03  7.5533E+02 -5.0457E+03  0.0000E+00  0.0000E+00  0.0000E+00  0.0000E+00
 260.000f -4.1980E+03  0.0000E+00  1.7989E+02 -4.7284E+03  4.8727E+03  0.0000E+00  0.0000E+00  0.0000E+00  0.0000E+00
   2.234m  2.4057E+03  0.0000E+00  1.7778E+01  3.5556E+01  9.0090E+01  9.0114E+01  9.0149E+01  0.0000E+00 -4.0514E+00

  rolling -4.1777E+03  2.9931E+03 -4.2609E+03  7.6549E+02 -5.0440E+03  0.0000E+00  0.0000E+00  0.0000E+00  0.0000E+00
 averages -4.1776E+03  0.0000E+00  1.6595E+02 -4.7462E+03  4.8768E+03  0.0000E+00  0.0000E+00  0.0000E+00  0.0000E+00
           2.4921E+03  0.0000E+00  1.7659E+01  3.5319E+01  9.0130E+01  8.9835E+01  8.9535E+01  0.0000E+00  8.9406E-02
 ------------------------------------------------------------------------------------------------------------------------
      140 -4.1919E+03  3.3864E+03 -4.2860E+03  7.4585E+02 -5.0483E+03  0.0000E+00  0.0000E+00  0.0000E+00  0.0000E+00
 280.000f -4.1931E+03  0.0000E+00  1.9184E+02 -4.7226E+03  4.8816E+03  0.0000E+00  0.0000E+00  0.0000E+00  0.0000E+00
   2.407m  2.3491E+03  0.0000E+00  1.6446E+01  3.2893E+01  8.9753E+01  8.9766E+01  8.9761E+01  0.0000E+00 -8.1229E-01

  rolling -4.1789E+03  3.0376E+03 -4.2633E+03  7.6315E+02 -5.0440E+03  0.0000E+00  0.0000E+00  0.0000E+00  0.0000E+00
 averages -4.1796E+03  0.0000E+00  1.7102E+02 -4.7383E+03  4.8742E+03  0.0000E+00  0.0000E+00  0.0000E+00  0.0000E+00
           2.4865E+03  0.0000E+00  1.7540E+01  3.5079E+01  9.0122E+01  8.9831E+01  8.9600E+01  0.0000E+00 -4.8034E-01
 ------------------------------------------------------------------------------------------------------------------------
      150 -4.2035E+03  3.0212E+03 -4.2874E+03  7.5117E+02 -5.0550E+03  0.0000E+00  0.0000E+00  0.0000E+00  0.0000E+00
 300.000f -4.2043E+03  0.0000E+00  1.7032E+02 -4.7501E+03  4.8876E+03  0.0000E+00  0.0000E+00  0.0000E+00  0.0000E+00
   2.555m  2.3332E+03  0.0000E+00  1.6437E+01  3.2873E+01  9.0042E+01  8.9746E+01  8.9698E+01  0.0000E+00 -5.4025E-01

  rolling -4.1823E+03  3.0258E+03 -4.2664E+03  7.6145E+02 -5.0454E+03  0.0000E+00  0.0000E+00  0.0000E+00  0.0000E+00
 averages -4.1836E+03  0.0000E+00  1.7187E+02 -4.7376E+03  4.8744E+03  0.0000E+00  0.0000E+00  0.0000E+00  0.0000E+00
           2.4709E+03  0.0000E+00  1.7522E+01  3.5044E+01  9.0116E+01  8.9839E+01  8.9681E+01  0.0000E+00 -8.0575E-01
 ------------------------------------------------------------------------------------------------------------------------
 ------------------------------------------------------------------------------------------------------------------------

     step     eng_tot    temp_tot     eng_cfg     eng_vdw     eng_cou     eng_bnd     eng_ang     eng_dih     eng_tet
 time          eng_pv    temp_rot     vir_cfg     vir_vdw     vir_cou     vir_bnd     vir_ang     vir_con     vir_tet
 cpu time      volume    temp_shl     eng_shl     vir_shl       alpha        beta       gamma     vir_pmf       press

 ------------------------------------------------------------------------------------------------------------------------
      160 -4.2053E+03  2.9854E+03 -4.2883E+03  7.4797E+02 -5.0522E+03  0.0000E+00  0.0000E+00  0.0000E+00  0.0000E+00
 320.000f -4.2074E+03  0.0000E+00  1.7230E+02 -4.7458E+03  4.8862E+03  0.0000E+00  0.0000E+00  0.0000E+00  0.0000E+00
   2.725m  2.3109E+03  0.0000E+00  1.5986E+01  3.1973E+01  9.0421E+01  9.0138E+01  8.9877E+01  0.0000E+00 -1.4522E+00

  rolling -4.1862E+03  3.0285E+03 -4.2703E+03  7.5931E+02 -5.0467E+03  0.0000E+00  0.0000E+00  0.0000E+00  0.0000E+00
 averages -4.1878E+03  0.0000E+00  1.7333E+02 -4.7367E+03  4.8758E+03  0.0000E+00  0.0000E+00  0.0000E+00  0.0000E+00
           2.4502E+03  0.0000E+00  1.7103E+01  3.4206E+01  9.0110E+01  8.9921E+01  8.9759E+01  0.0000E+00 -1.0855E+00
 ------------------------------------------------------------------------------------------------------------------------
      170 -4.2058E+03  2.9822E+03 -4.2887E+03  7.5013E+02 -5.0548E+03  0.0000E+00  0.0000E+00  0.0000E+00  0.0000E+00
 340.000f -4.2042E+03  0.0000E+00  1.6111E+02 -4.7619E+03  4.8911E+03  0.0000E+00  0.0000E+00  0.0000E+00  0.0000E+00
   2.873m  2.3043E+03  0.0000E+00  1.6001E+01  3.2001E+01  9.0183E+01  9.0023E+01  8.9772E+01  0.0000E+00  1.0618E+00

  rolling -4.1894E+03  3.0253E+03 -4.2735E+03  7.5729E+02 -5.0476E+03  0.0000E+00  0.0000E+00  0.0000E+00  0.0000E+00
 averages -4.1910E+03  0.0000E+00  1.7304E+02 -4.7385E+03  4.8777E+03  0.0000E+00  0.0000E+00  0.0000E+00  0.0000E+00
           2.4260E+03  0.0000E+00  1.6905E+01  3.3810E+01  9.0078E+01  8.9987E+01  8.9764E+01  0.0000E+00 -1.0664E+00
 ------------------------------------------------------------------------------------------------------------------------
      180 -4.2046E+03  3.0189E+03 -4.2885E+03  7.5104E+02 -5.0536E+03  0.0000E+00  0.0000E+00  0.0000E+00  0.0000E+00
 360.000f -4.2033E+03  0.0000E+00  1.6407E+02 -4.7499E+03  4.8857E+03  0.0000E+00  0.0000E+00  0.0000E+00  0.0000E+00
   3.049m  2.3278E+03  0.0000E+00  1.4128E+01  2.8256E+01  9.0009E+01  9.0096E+01  8.9952E+01  0.0000E+00  8.4329E-01

  rolling -4.1924E+03  3.0096E+03 -4.2760E+03  7.5610E+02 -5.0487E+03  0.0000E+00  0.0000E+00  0.0000E+00  0.0000E+00
 averages -4.1937E+03  0.0000E+00  1.7119E+02 -4.7414E+03  4.8795E+03  0.0000E+00  0.0000E+00  0.0000E+00  0.0000E+00
           2.4055E+03  0.0000E+00  1.6560E+01  3.3119E+01  9.0069E+01  8.9970E+01  8.9804E+01  0.0000E+00 -8.5388E-01
 ------------------------------------------------------------------------------------------------------------------------
      190 -4.2052E+03  2.8055E+03 -4.2831E+03  7.5534E+02 -5.0546E+03  0.0000E+00  0.0000E+00  0.0000E+00  0.0000E+00
 380.000f -4.2039E+03  0.0000E+00  1.5204E+02 -4.7656E+03  4.8853E+03  0.0000E+00  0.0000E+00  0.0000E+00  0.0000E+00
   3.199m  2.3492E+03  0.0000E+00  1.6164E+01  3.2327E+01  9.0270E+01  9.0074E+01  8.9650E+01  0.0000E+00  8.7561E-01

  rolling -4.1948E+03  3.0132E+03 -4.2785E+03  7.5465E+02 -5.0495E+03  0.0000E+00  0.0000E+00  0.0000E+00  0.0000E+00
 averages -4.1958E+03  0.0000E+00  1.7045E+02 -4.7421E+03  4.8800E+03  0.0000E+00  0.0000E+00  0.0000E+00  0.0000E+00
           2.3900E+03  0.0000E+00  1.6283E+01  3.2567E+01  9.0074E+01  8.9965E+01  8.9812E+01  0.0000E+00 -6.4849E-01
 ------------------------------------------------------------------------------------------------------------------------
      200 -4.1992E+03  2.9205E+03 -4.2804E+03  7.5342E+02 -5.0485E+03  0.0000E+00  0.0000E+00  0.0000E+00  0.0000E+00
 400.000f -4.1998E+03  0.0000E+00  1.6403E+02 -4.7455E+03  4.8802E+03  0.0000E+00  0.0000E+00  0.0000E+00  0.0000E+00
   3.362m  2.3529E+03  0.0000E+00  1.4694E+01  2.9388E+01  9.0283E+01  9.0033E+01  9.0207E+01  0.0000E+00 -3.8111E-01

  rolling -4.1967E+03  3.0082E+03 -4.2803E+03  7.5335E+02 -5.0499E+03  0.0000E+00  0.0000E+00  0.0000E+00  0.0000E+00
 averages -4.1979E+03  0.0000E+00  1.7079E+02 -4.7420E+03  4.8804E+03  0.0000E+00  0.0000E+00  0.0000E+00  0.0000E+00
           2.3744E+03  0.0000E+00  1.6236E+01  3.2472E+01  9.0084E+01  8.9939E+01  8.9839E+01  0.0000E+00 -7.7670E-01
 ------------------------------------------------------------------------------------------------------------------------


 switching off temperature scaling at step    200


 ------------------------------------------------------------------------------------------------------------------------
      210 -4.1985E+03  2.9658E+03 -4.2809E+03  7.5362E+02 -5.0521E+03  0.0000E+00  0.0000E+00  0.0000E+00  0.0000E+00
 420.000f -4.1985E+03  0.0000E+00  1.6483E+02 -4.7583E+03  4.8880E+03  0.0000E+00  0.0000E+00  0.0000E+00  0.0000E+00
   3.509m  2.3386E+03  0.0000E+00  1.7589E+01  3.5178E+01  9.0578E+01  9.0541E+01  9.0298E+01  0.0000E+00  4.1498E-03

  rolling -4.1989E+03  3.0129E+03 -4.2826E+03  7.5226E+02 -5.0508E+03  0.0000E+00  0.0000E+00  0.0000E+00  0.0000E+00
 averages -4.1999E+03  0.0000E+00  1.7043E+02 -4.7435E+03  4.8820E+03  0.0000E+00  0.0000E+00  0.0000E+00  0.0000E+00
           2.3585E+03  0.0000E+00  1.5947E+01  3.1894E+01  9.0136E+01  9.0019E+01  8.9888E+01  0.0000E+00 -6.5018E-01
 ------------------------------------------------------------------------------------------------------------------------
      220 -4.1977E+03  2.9673E+03 -4.2802E+03  7.5582E+02 -5.0517E+03  0.0000E+00  0.0000E+00  0.0000E+00  0.0000E+00
 440.000f -4.1961E+03  0.0000E+00  1.5999E+02 -4.7545E+03  4.8830E+03  0.0000E+00  0.0000E+00  0.0000E+00  0.0000E+00
   3.677m  2.3669E+03  0.0000E+00  1.5699E+01  3.1399E+01  9.0291E+01  8.9881E+01  9.0240E+01  0.0000E+00  1.0989E+00

  rolling -4.2002E+03  2.9933E+03 -4.2834E+03  7.5217E+02 -5.0516E+03  0.0000E+00  0.0000E+00  0.0000E+00  0.0000E+00
 averages -4.2008E+03  0.0000E+00  1.6833E+02 -4.7476E+03  4.8838E+03  0.0000E+00  0.0000E+00  0.0000E+00  0.0000E+00
           2.3476E+03  0.0000E+00  1.6075E+01  3.2150E+01  9.0194E+01  9.0060E+01  8.9942E+01  0.0000E+00 -4.2779E-01
 ------------------------------------------------------------------------------------------------------------------------
      230 -4.1920E+03  2.9430E+03 -4.2738E+03  7.6758E+02 -5.0601E+03  0.0000E+00  0.0000E+00  0.0000E+00  0.0000E+00
 460.000f -4.1978E+03  0.0000E+00  1.8087E+02 -4.8331E+03  4.9766E+03  0.0000E+00  0.0000E+00  0.0000E+00  0.0000E+00
   3.837m  2.3241E+03  0.0000E+00  1.8712E+01  3.7424E+01  8.9695E+01  9.0096E+01  8.9554E+01  0.0000E+00 -3.9211E+00

  rolling -4.2007E+03  2.9875E+03 -4.2837E+03  7.5219E+02 -5.0521E+03  0.0000E+00  0.0000E+00  0.0000E+00  0.0000E+00
 averages -4.2013E+03  0.0000E+00  1.6776E+02 -4.7516E+03  4.8870E+03  0.0000E+00  0.0000E+00  0.0000E+00  0.0000E+00
           2.3395E+03  0.0000E+00  1.6193E+01  3.2386E+01  9.0154E+01  9.0041E+01  8.9953E+01  0.0000E+00 -3.8235E-01
 ------------------------------------------------------------------------------------------------------------------------
 ------------------------------------------------------------------------------------------------------------------------

     step     eng_tot    temp_tot     eng_cfg     eng_vdw     eng_cou     eng_bnd     eng_ang     eng_dih     eng_tet
 time          eng_pv    temp_rot     vir_cfg     vir_vdw     vir_cou     vir_bnd     vir_ang     vir_con     vir_tet
 cpu time      volume    temp_shl     eng_shl     vir_shl       alpha        beta       gamma     vir_pmf       press

 ------------------------------------------------------------------------------------------------------------------------
      240 -4.1987E+03  2.9803E+03 -4.2815E+03  7.6215E+02 -5.0613E+03  0.0000E+00  0.0000E+00  0.0000E+00  0.0000E+00
 480.000f -4.1872E+03  0.0000E+00  1.3141E+02 -4.8058E+03  4.9018E+03  0.0000E+00  0.0000E+00  0.0000E+00  0.0000E+00
   4.012m  2.3549E+03  0.0000E+00  1.7708E+01  3.5416E+01  8.9781E+01  8.9757E+01  8.9730E+01  0.0000E+00  7.6643E+00

  rolling -4.2008E+03  2.9783E+03 -4.2835E+03  7.5474E+02 -5.0544E+03  0.0000E+00  0.0000E+00  0.0000E+00  0.0000E+00
 averages -4.2007E+03  0.0000E+00  1.6539E+02 -4.7672E+03  4.9003E+03  0.0000E+00  0.0000E+00  0.0000E+00  0.0000E+00
           2.3342E+03  0.0000E+00  1.6156E+01  3.2313E+01  9.0157E+01  9.0033E+01  8.9954E+01  0.0000E+00  2.9932E-02
 ------------------------------------------------------------------------------------------------------------------------
      250 -4.1974E+03  3.0234E+03 -4.2815E+03  7.5577E+02 -5.0533E+03  0.0000E+00  0.0000E+00  0.0000E+00  0.0000E+00
 500.000f -4.1961E+03  0.0000E+00  1.6415E+02 -4.7525E+03  4.8846E+03  0.0000E+00  0.0000E+00  0.0000E+00  0.0000E+00
   4.180m  2.3761E+03  0.0000E+00  1.6029E+01  3.2058E+01  9.0111E+01  8.9841E+01  8.9923E+01  0.0000E+00  8.6368E-01

  rolling -4.2002E+03  2.9674E+03 -4.2827E+03  7.5536E+02 -5.0543E+03  0.0000E+00  0.0000E+00  0.0000E+00  0.0000E+00
 averages -4.1999E+03  0.0000E+00  1.6401E+02 -4.7689E+03  4.9003E+03  0.0000E+00  0.0000E+00  0.0000E+00  0.0000E+00
           2.3371E+03  0.0000E+00  1.6282E+01  3.2565E+01  9.0175E+01  9.0033E+01  8.9967E+01  0.0000E+00  2.0500E-01
 ------------------------------------------------------------------------------------------------------------------------
      260 -4.1866E+03  2.9086E+03 -4.2674E+03  7.8290E+02 -5.0673E+03  0.0000E+00  0.0000E+00  0.0000E+00  0.0000E+00
 520.000f -4.1956E+03  0.0000E+00  1.8887E+02 -4.8944E+03  5.0492E+03  0.0000E+00  0.0000E+00  0.0000E+00  0.0000E+00
   4.331m  2.3231E+03  0.0000E+00  1.7000E+01  3.4000E+01  8.9841E+01  8.9742E+01  9.0205E+01  0.0000E+00 -6.1717E+00

  rolling -4.1991E+03  2.9622E+03 -4.2815E+03  7.5675E+02 -5.0546E+03  0.0000E+00  0.0000E+00  0.0000E+00  0.0000E+00
 averages -4.1990E+03  0.0000E+00  1.6436E+02 -4.7729E+03  4.9045E+03  0.0000E+00  0.0000E+00  0.0000E+00  0.0000E+00
           2.3411E+03  0.0000E+00  1.6352E+01  3.2704E+01  9.0139E+01  9.0015E+01  8.9973E+01  0.0000E+00  6.0988E-02
 ------------------------------------------------------------------------------------------------------------------------
      270 -4.1907E+03  3.1881E+03 -4.2793E+03  7.8376E+02 -5.0788E+03  0.0000E+00  0.0000E+00  0.0000E+00  0.0000E+00
 540.000f -4.1784E+03  0.0000E+00  1.4056E+02 -4.9197E+03  5.0288E+03  0.0000E+00  0.0000E+00  0.0000E+00  0.0000E+00
   4.515m  2.3225E+03  0.0000E+00  1.5734E+01  3.1469E+01  8.9907E+01  8.9595E+01  9.0244E+01  0.0000E+00  8.3155E+00

  rolling -4.1974E+03  2.9724E+03 -4.2800E+03  7.6024E+02 -5.0565E+03  0.0000E+00  0.0000E+00  0.0000E+00  0.0000E+00
 averages -4.1972E+03  0.0000E+00  1.6480E+02 -4.7880E+03  4.9202E+03  0.0000E+00  0.0000E+00  0.0000E+00  0.0000E+00
           2.3431E+03  0.0000E+00  1.6317E+01  3.2634E+01  9.0077E+01  8.9970E+01  9.0045E+01  0.0000E+00  8.7746E-02
 ------------------------------------------------------------------------------------------------------------------------
      280 -4.1879E+03  2.7142E+03 -4.2633E+03  7.9152E+02 -5.0755E+03  0.0000E+00  0.0000E+00  0.0000E+00  0.0000E+00
 560.000f -4.1880E+03  0.0000E+00  1.5104E+02 -4.9483E+03  5.0579E+03  0.0000E+00  0.0000E+00  0.0000E+00  0.0000E+00
   4.695m  2.3005E+03  0.0000E+00  2.0675E+01  4.1349E+01  8.9968E+01  8.9917E+01  9.0188E+01  0.0000E+00 -4.0793E-02

  rolling -4.1958E+03  2.9716E+03 -4.2784E+03  7.6330E+02 -5.0583E+03  0.0000E+00  0.0000E+00  0.0000E+00  0.0000E+00
 averages -4.1960E+03  0.0000E+00  1.6572E+02 -4.8033E+03  4.9358E+03  0.0000E+00  0.0000E+00  0.0000E+00  0.0000E+00
           2.3416E+03  0.0000E+00  1.6604E+01  3.3207E+01  9.0076E+01  8.9939E+01  9.0077E+01  0.0000E+00 -1.3301E-01
 ------------------------------------------------------------------------------------------------------------------------
      290 -4.1956E+03  3.3075E+03 -4.2875E+03  7.5136E+02 -5.0549E+03  0.0000E+00  0.0000E+00  0.0000E+00  0.0000E+00
 580.000f -4.2033E+03  0.0000E+00  2.0719E+02 -4.7585E+03  4.9335E+03  0.0000E+00  0.0000E+00  0.0000E+00  0.0000E+00
   4.897m  2.3048E+03  0.0000E+00  1.6102E+01  3.2204E+01  9.0092E+01  8.9906E+01  8.9902E+01  0.0000E+00 -5.3413E+00

  rolling -4.1944E+03  2.9786E+03 -4.2772E+03  7.6545E+02 -5.0596E+03  0.0000E+00  0.0000E+00  0.0000E+00  0.0000E+00
 averages -4.1947E+03  0.0000E+00  1.6647E+02 -4.8137E+03  4.9462E+03  0.0000E+00  0.0000E+00  0.0000E+00  0.0000E+00
           2.3388E+03  0.0000E+00  1.6969E+01  3.3937E+01  9.0052E+01  8.9921E+01  9.0103E+01  0.0000E+00 -2.1584E-01
 ------------------------------------------------------------------------------------------------------------------------
      300 -4.1996E+03  2.9576E+03 -4.2818E+03  7.5689E+02 -5.0598E+03  0.0000E+00  0.0000E+00  0.0000E+00  0.0000E+00
 600.000f -4.1969E+03  0.0000E+00  1.5626E+02 -4.7860E+03  4.9000E+03  0.0000E+00  0.0000E+00  0.0000E+00  0.0000E+00
   5.076m  2.3164E+03  0.0000E+00  2.1121E+01  4.2241E+01  9.0068E+01  9.0098E+01  8.9625E+01  0.0000E+00  1.8499E+00

  rolling -4.1943E+03  2.9993E+03 -4.2777E+03  7.6553E+02 -5.0605E+03  0.0000E+00  0.0000E+00  0.0000E+00  0.0000E+00
 averages -4.1946E+03  0.0000E+00  1.6744E+02 -4.8169E+03  4.9497E+03  0.0000E+00  0.0000E+00  0.0000E+00  0.0000E+00
           2.3338E+03  0.0000E+00  1.7299E+01  3.4599E+01  9.0011E+01  8.9942E+01  9.0103E+01  0.0000E+00 -1.8021E-01
 ------------------------------------------------------------------------------------------------------------------------
      310 -4.1987E+03  2.9391E+03 -4.2804E+03  7.5647E+02 -5.0545E+03  0.0000E+00  0.0000E+00  0.0000E+00  0.0000E+00
 620.000f -4.1980E+03  0.0000E+00  1.6138E+02 -4.7615E+03  4.8876E+03  0.0000E+00  0.0000E+00  0.0000E+00  0.0000E+00
   5.255m  2.3561E+03  0.0000E+00  1.7646E+01  3.5292E+01  9.0373E+01  8.9550E+01  8.9316E+01  0.0000E+00  4.4453E-01

  rolling -4.1943E+03  2.9934E+03 -4.2775E+03  7.6629E+02 -5.0615E+03  0.0000E+00  0.0000E+00  0.0000E+00  0.0000E+00
 averages -4.1942E+03  0.0000E+00  1.6598E+02 -4.8210E+03  4.9517E+03  0.0000E+00  0.0000E+00  0.0000E+00  0.0000E+00
           2.3332E+03  0.0000E+00  1.7645E+01  3.5291E+01  8.9994E+01  8.9872E+01  9.0013E+01  0.0000E+00  7.4735E-02
 ------------------------------------------------------------------------------------------------------------------------
 ------------------------------------------------------------------------------------------------------------------------

     step     eng_tot    temp_tot     eng_cfg     eng_vdw     eng_cou     eng_bnd     eng_ang     eng_dih     eng_tet
 time          eng_pv    temp_rot     vir_cfg     vir_vdw     vir_cou     vir_bnd     vir_ang     vir_con     vir_tet
 cpu time      volume    temp_shl     eng_shl     vir_shl       alpha        beta       gamma     vir_pmf       press

 ------------------------------------------------------------------------------------------------------------------------
      320 -4.1988E+03  3.0111E+03 -4.2825E+03  7.5107E+02 -5.0513E+03  0.0000E+00  0.0000E+00  0.0000E+00  0.0000E+00
 640.000f -4.2010E+03  0.0000E+00  1.7403E+02 -4.7477E+03  4.8862E+03  0.0000E+00  0.0000E+00  0.0000E+00  0.0000E+00
   5.452m  2.3354E+03  0.0000E+00  1.7778E+01  3.5556E+01  9.0153E+01  9.0051E+01  9.0315E+01  0.0000E+00 -1.5058E+00

  rolling -4.1944E+03  2.9887E+03 -4.2775E+03  7.6617E+02 -5.0614E+03  0.0000E+00  0.0000E+00  0.0000E+00  0.0000E+00
 averages -4.1946E+03  0.0000E+00  1.6675E+02 -4.8204E+03  4.9515E+03  0.0000E+00  0.0000E+00  0.0000E+00  0.0000E+00
           2.3328E+03  0.0000E+00  1.7785E+01  3.5570E+01  8.9974E+01  8.9830E+01  8.9967E+01  0.0000E+00 -1.5672E-01
 ------------------------------------------------------------------------------------------------------------------------
      330 -4.1899E+03  3.0225E+03 -4.2739E+03  7.8366E+02 -5.0768E+03  0.0000E+00  0.0000E+00  0.0000E+00  0.0000E+00
 660.000f -4.1894E+03  0.0000E+00  1.6655E+02 -4.9345E+03  5.0626E+03  0.0000E+00  0.0000E+00  0.0000E+00  0.0000E+00
   5.629m  2.2697E+03  0.0000E+00  1.9265E+01  3.8529E+01  8.9942E+01  9.0257E+01  8.9954E+01  0.0000E+00  3.3571E-01

  rolling -4.1941E+03  2.9958E+03 -4.2774E+03  7.6718E+02 -5.0624E+03  0.0000E+00  0.0000E+00  0.0000E+00  0.0000E+00
 averages -4.1945E+03  0.0000E+00  1.6763E+02 -4.8279E+03  4.9598E+03  0.0000E+00  0.0000E+00  0.0000E+00  0.0000E+00
           2.3266E+03  0.0000E+00  1.7875E+01  3.5749E+01  8.9991E+01  8.9840E+01  8.9982E+01  0.0000E+00 -2.7421E-01
 ------------------------------------------------------------------------------------------------------------------------
      340 -4.1908E+03  3.2286E+03 -4.2805E+03  7.7953E+02 -5.0738E+03  0.0000E+00  0.0000E+00  0.0000E+00  0.0000E+00
 680.000f -4.1894E+03  0.0000E+00  1.7525E+02 -4.9120E+03  5.0598E+03  0.0000E+00  0.0000E+00  0.0000E+00  0.0000E+00
   5.839m  2.2774E+03  0.0000E+00  1.3727E+01  2.7453E+01  8.9892E+01  9.0187E+01  9.0304E+01  0.0000E+00  9.7306E-01

  rolling -4.1940E+03  3.0083E+03 -4.2776E+03  7.6765E+02 -5.0630E+03  0.0000E+00  0.0000E+00  0.0000E+00  0.0000E+00
 averages -4.1946E+03  0.0000E+00  1.6883E+02 -4.8314E+03  4.9648E+03  0.0000E+00  0.0000E+00  0.0000E+00  0.0000E+00
           2.3222E+03  0.0000E+00  1.7711E+01  3.5423E+01  9.0005E+01  8.9885E+01  8.9997E+01  0.0000E+00 -3.8407E-01
 ------------------------------------------------------------------------------------------------------------------------
      350 -4.1922E+03  2.6268E+03 -4.2652E+03  7.9271E+02 -5.0753E+03  0.0000E+00  0.0000E+00  0.0000E+00  0.0000E+00
 700.000f -4.1801E+03  0.0000E+00  1.0980E+02 -4.9511E+03  5.0260E+03  0.0000E+00  0.0000E+00  0.0000E+00  0.0000E+00
   6.021m  2.3216E+03  0.0000E+00  1.7442E+01  3.4883E+01  8.9968E+01  8.9594E+01  9.0156E+01  0.0000E+00  8.2200E+00

  rolling -4.1933E+03  3.0064E+03 -4.2769E+03  7.7072E+02 -5.0652E+03  0.0000E+00  0.0000E+00  0.0000E+00  0.0000E+00
 averages -4.1937E+03  0.0000E+00  1.6823E+02 -4.8487E+03  4.9817E+03  0.0000E+00  0.0000E+00  0.0000E+00  0.0000E+00
           2.3150E+03  0.0000E+00  1.7612E+01  3.5225E+01  8.9985E+01  8.9908E+01  9.0011E+01  0.0000E+00 -2.6991E-01
 ------------------------------------------------------------------------------------------------------------------------
      360 -4.1961E+03  3.0160E+03 -4.2799E+03  7.6139E+02 -5.0570E+03  0.0000E+00  0.0000E+00  0.0000E+00  0.0000E+00
 720.000f -4.1988E+03  0.0000E+00  1.7558E+02 -4.7856E+03  4.9299E+03  0.0000E+00  0.0000E+00  0.0000E+00  0.0000E+00
   6.189m  2.3413E+03  0.0000E+00  1.5644E+01  3.1289E+01  8.9856E+01  8.9847E+01  9.0843E+01  0.0000E+00 -1.7888E+00

  rolling -4.1934E+03  2.9944E+03 -4.2766E+03  7.7148E+02 -5.0655E+03  0.0000E+00  0.0000E+00  0.0000E+00  0.0000E+00
 averages -4.1932E+03  0.0000E+00  1.6602E+02 -4.8532E+03  4.9843E+03  0.0000E+00  0.0000E+00  0.0000E+00  0.0000E+00
           2.3129E+03  0.0000E+00  1.7484E+01  3.4968E+01  8.9955E+01  8.9916E+01  9.0033E+01  0.0000E+00  7.8349E-02
 ------------------------------------------------------------------------------------------------------------------------
      370 -4.1971E+03  3.0268E+03 -4.2812E+03  7.7059E+02 -5.0671E+03  0.0000E+00  0.0000E+00  0.0000E+00  0.0000E+00
 740.000f -4.1814E+03  0.0000E+00  1.2103E+02 -4.8558E+03  4.9462E+03  0.0000E+00  0.0000E+00  0.0000E+00  0.0000E+00
   6.356m  2.3287E+03  0.0000E+00  1.5354E+01  3.0708E+01  8.9863E+01  8.9827E+01  9.0380E+01  0.0000E+00  1.0684E+01

  rolling -4.1941E+03  2.9876E+03 -4.2771E+03  7.6965E+02 -5.0643E+03  0.0000E+00  0.0000E+00  0.0000E+00  0.0000E+00
 averages -4.1940E+03  0.0000E+00  1.6588E+02 -4.8444E+03  4.9753E+03  0.0000E+00  0.0000E+00  0.0000E+00  0.0000E+00
           2.3128E+03  0.0000E+00  1.7511E+01  3.5023E+01  8.9957E+01  8.9924E+01  9.0015E+01  0.0000E+00  2.1203E-02
 ------------------------------------------------------------------------------------------------------------------------
      380 -4.1991E+03  3.0207E+03 -4.2830E+03  7.5398E+02 -5.0541E+03  0.0000E+00  0.0000E+00  0.0000E+00  0.0000E+00
 760.000f -4.1987E+03  0.0000E+00  1.6675E+02 -4.7525E+03  4.8851E+03  0.0000E+00  0.0000E+00  0.0000E+00  0.0000E+00
   6.525m  2.3502E+03  0.0000E+00  1.7050E+01  3.4099E+01  8.9479E+01  8.9992E+01  9.0160E+01  0.0000E+00  2.5774E-01

  rolling -4.1951E+03  2.9932E+03 -4.2783E+03  7.6677E+02 -5.0624E+03  0.0000E+00  0.0000E+00  0.0000E+00  0.0000E+00
 averages -4.1948E+03  0.0000E+00  1.6527E+02 -4.8289E+03  4.9595E+03  0.0000E+00  0.0000E+00  0.0000E+00  0.0000E+00
           2.3170E+03  0.0000E+00  1.7305E+01  3.4611E+01  8.9915E+01  8.9935E+01  9.0006E+01  0.0000E+00  2.3126E-01
 ------------------------------------------------------------------------------------------------------------------------
      390 -4.1994E+03  3.0372E+03 -4.2838E+03  7.5004E+02 -5.0491E+03  0.0000E+00  0.0000E+00  0.0000E+00  0.0000E+00
 780.000f -4.2012E+03  0.0000E+00  1.7414E+02 -4.7373E+03  4.8809E+03  0.0000E+00  0.0000E+00  0.0000E+00  0.0000E+00
   6.699m  2.3448E+03  0.0000E+00  1.5273E+01  3.0545E+01  8.9859E+01  8.9837E+01  9.0079E+01  0.0000E+00 -1.1984E+00

  rolling -4.1959E+03  2.9960E+03 -4.2791E+03  7.6461E+02 -5.0608E+03  0.0000E+00  0.0000E+00  0.0000E+00  0.0000E+00
 averages -4.1956E+03  0.0000E+00  1.6564E+02 -4.8173E+03  4.9488E+03  0.0000E+00  0.0000E+00  0.0000E+00  0.0000E+00
           2.3209E+03  0.0000E+00  1.7093E+01  3.4187E+01  8.9884E+01  8.9927E+01  9.0021E+01  0.0000E+00  1.8736E-01
 ------------------------------------------------------------------------------------------------------------------------
 ------------------------------------------------------------------------------------------------------------------------

     step     eng_tot    temp_tot     eng_cfg     eng_vdw     eng_cou     eng_bnd     eng_ang     eng_dih     eng_tet
 time          eng_pv    temp_rot     vir_cfg     vir_vdw     vir_cou     vir_bnd     vir_ang     vir_con     vir_tet
 cpu time      volume    temp_shl     eng_shl     vir_shl       alpha        beta       gamma     vir_pmf       press

 ------------------------------------------------------------------------------------------------------------------------
      400 -4.1903E+03  2.8953E+03 -4.2707E+03  7.8479E+02 -5.0740E+03  0.0000E+00  0.0000E+00  0.0000E+00  0.0000E+00
 800.000f -4.1908E+03  0.0000E+00  1.6240E+02 -4.9320E+03  5.0574E+03  0.0000E+00  0.0000E+00  0.0000E+00  0.0000E+00
   6.870m  2.2820E+03  0.0000E+00  1.8483E+01  3.6966E+01  8.9431E+01  8.9918E+01  8.9576E+01  0.0000E+00 -3.4148E-01

  rolling -4.1954E+03  2.9846E+03 -4.2784E+03  7.6575E+02 -5.0610E+03  0.0000E+00  0.0000E+00  0.0000E+00  0.0000E+00
 averages -4.1957E+03  0.0000E+00  1.6657E+02 -4.8224E+03  4.9552E+03  0.0000E+00  0.0000E+00  0.0000E+00  0.0000E+00
           2.3210E+03  0.0000E+00  1.6843E+01  3.3685E+01  8.9865E+01  8.9904E+01  9.0000E+01  0.0000E+00 -1.6824E-01
 ------------------------------------------------------------------------------------------------------------------------
      410 -4.2000E+03  2.9175E+03 -4.2811E+03  7.5645E+02 -5.0553E+03  0.0000E+00  0.0000E+00  0.0000E+00  0.0000E+00
 820.000f -4.1981E+03  0.0000E+00  1.5627E+02 -4.7710E+03  4.8918E+03  0.0000E+00  0.0000E+00  0.0000E+00  0.0000E+00
   7.042m  2.3403E+03  0.0000E+00  1.7745E+01  3.5489E+01  8.9825E+01  8.9716E+01  8.9891E+01  0.0000E+00  1.3261E+00

  rolling -4.1952E+03  2.9832E+03 -4.2782E+03  7.6657E+02 -5.0614E+03  0.0000E+00  0.0000E+00  0.0000E+00  0.0000E+00
 averages -4.1953E+03  0.0000E+00  1.6609E+02 -4.8276E+03  4.9603E+03  0.0000E+00  0.0000E+00  0.0000E+00  0.0000E+00
           2.3187E+03  0.0000E+00  1.6721E+01  3.3442E+01  8.9811E+01  8.9917E+01  9.0050E+01  0.0000E+00 -7.5096E-02
 ------------------------------------------------------------------------------------------------------------------------
      420 -4.1994E+03  3.0348E+03 -4.2837E+03  7.5166E+02 -5.0496E+03  0.0000E+00  0.0000E+00  0.0000E+00  0.0000E+00
 840.000f -4.2002E+03  0.0000E+00  1.7108E+02 -4.7372E+03  4.8799E+03  0.0000E+00  0.0000E+00  0.0000E+00  0.0000E+00
   7.188m  2.3576E+03  0.0000E+00  1.4207E+01  2.8413E+01  9.0232E+01  9.0398E+01  8.9859E+01  0.0000E+00 -5.3631E-01

  rolling -4.1953E+03  2.9860E+03 -4.2783E+03  7.6671E+02 -5.0616E+03  0.0000E+00  0.0000E+00  0.0000E+00  0.0000E+00
 averages -4.1952E+03  0.0000E+00  1.6545E+02 -4.8280E+03  4.9604E+03  0.0000E+00  0.0000E+00  0.0000E+00  0.0000E+00
           2.3194E+03  0.0000E+00  1.6551E+01  3.3102E+01  8.9796E+01  8.9937E+01  9.0055E+01  0.0000E+00  1.0453E-01
 ------------------------------------------------------------------------------------------------------------------------
      430 -4.1995E+03  2.8584E+03 -4.2790E+03  7.5661E+02 -5.0562E+03  0.0000E+00  0.0000E+00  0.0000E+00  0.0000E+00
 860.000f -4.2006E+03  0.0000E+00  1.6199E+02 -4.7668E+03  4.8875E+03  0.0000E+00  0.0000E+00  0.0000E+00  0.0000E+00
   7.353m  2.3366E+03  0.0000E+00  2.0631E+01  4.1261E+01  8.9620E+01  8.9702E+01  9.0324E+01  0.0000E+00 -7.0240E-01

  rolling -4.1959E+03  2.9730E+03 -4.2786E+03  7.6546E+02 -5.0605E+03  0.0000E+00  0.0000E+00  0.0000E+00  0.0000E+00
 averages -4.1954E+03  0.0000E+00  1.6379E+02 -4.8194E+03  4.9501E+03  0.0000E+00  0.0000E+00  0.0000E+00  0.0000E+00
           2.3246E+03  0.0000E+00  1.6522E+01  3.3043E+01  8.9773E+01  8.9945E+01  9.0043E+01  0.0000E+00  3.2442E-01
 ------------------------------------------------------------------------------------------------------------------------
      440 -4.2007E+03  3.1290E+03 -4.2876E+03  7.4592E+02 -5.0460E+03  0.0000E+00  0.0000E+00  0.0000E+00  0.0000E+00
 880.000f -4.2019E+03  0.0000E+00  1.7754E+02 -4.7262E+03  4.8787E+03  0.0000E+00  0.0000E+00  0.0000E+00  0.0000E+00
   7.506m  2.3251E+03  0.0000E+00  1.2489E+01  2.4979E+01  8.9717E+01  8.9828E+01  9.0331E+01  0.0000E+00 -8.2141E-01

  rolling -4.1969E+03  2.9673E+03 -4.2794E+03  7.6234E+02 -5.0582E+03  0.0000E+00  0.0000E+00  0.0000E+00  0.0000E+00
 averages -4.1966E+03  0.0000E+00  1.6388E+02 -4.8013E+03  4.9323E+03  0.0000E+00  0.0000E+00  0.0000E+00  0.0000E+00
           2.3305E+03  0.0000E+00  1.6465E+01  3.2931E+01  8.9759E+01  8.9878E+01  9.0068E+01  0.0000E+00  2.3214E-01
 ------------------------------------------------------------------------------------------------------------------------
      450 -4.2010E+03  3.0179E+03 -4.2849E+03  7.4985E+02 -5.0522E+03  0.0000E+00  0.0000E+00  0.0000E+00  0.0000E+00
 900.000f -4.2010E+03  0.0000E+00  1.6780E+02 -4.7558E+03  4.8887E+03  0.0000E+00  0.0000E+00  0.0000E+00  0.0000E+00
   7.702m  2.3105E+03  0.0000E+00  1.7448E+01  3.4897E+01  9.0008E+01  9.0198E+01  8.9707E+01  0.0000E+00 -1.2971E-02

  rolling -4.1979E+03  2.9809E+03 -4.2808E+03  7.5848E+02 -5.0557E+03  0.0000E+00  0.0000E+00  0.0000E+00  0.0000E+00
 averages -4.1980E+03  0.0000E+00  1.6587E+02 -4.7821E+03  4.9151E+03  0.0000E+00  0.0000E+00  0.0000E+00  0.0000E+00
           2.3326E+03  0.0000E+00  1.6412E+01  3.2824E+01  8.9757E+01  8.9889E+01  9.0066E+01  0.0000E+00 -5.1422E-02
 ------------------------------------------------------------------------------------------------------------------------
      460 -4.2007E+03  3.0412E+03 -4.2852E+03  7.5273E+02 -5.0531E+03  0.0000E+00  0.0000E+00  0.0000E+00  0.0000E+00
 920.000f -4.1982E+03  0.0000E+00  1.6166E+02 -4.7545E+03  4.8858E+03  0.0000E+00  0.0000E+00  0.0000E+00  0.0000E+00
   7.883m  2.3354E+03  0.0000E+00  1.5224E+01  3.0448E+01  8.9992E+01  8.9776E+01  8.9931E+01  0.0000E+00  1.6652E+00

  rolling -4.1985E+03  2.9982E+03 -4.2819E+03  7.5655E+02 -5.0549E+03  0.0000E+00  0.0000E+00  0.0000E+00  0.0000E+00
 averages -4.1986E+03  0.0000E+00  1.6674E+02 -4.7748E+03  4.9085E+03  0.0000E+00  0.0000E+00  0.0000E+00  0.0000E+00
           2.3305E+03  0.0000E+00  1.6527E+01  3.3055E+01  8.9789E+01  8.9898E+01  9.0029E+01  0.0000E+00 -3.0330E-02
 ------------------------------------------------------------------------------------------------------------------------
      470 -4.2007E+03  2.9151E+03 -4.2817E+03  7.5263E+02 -5.0519E+03  0.0000E+00  0.0000E+00  0.0000E+00  0.0000E+00
 940.000f -4.2025E+03  0.0000E+00  1.6736E+02 -4.7502E+03  4.8825E+03  0.0000E+00  0.0000E+00  0.0000E+00  0.0000E+00
   8.079m  2.3356E+03  0.0000E+00  1.7536E+01  3.5071E+01  9.0005E+01  8.9766E+01  8.9902E+01  0.0000E+00 -1.2030E+00

  rolling -4.1991E+03  2.9904E+03 -4.2822E+03  7.5540E+02 -5.0541E+03  0.0000E+00  0.0000E+00  0.0000E+00  0.0000E+00
 averages -4.1990E+03  0.0000E+00  1.6605E+02 -4.7681E+03  4.9011E+03  0.0000E+00  0.0000E+00  0.0000E+00  0.0000E+00
           2.3325E+03  0.0000E+00  1.6525E+01  3.3051E+01  8.9816E+01  8.9903E+01  8.9993E+01  0.0000E+00  3.3285E-02
 ------------------------------------------------------------------------------------------------------------------------
 ------------------------------------------------------------------------------------------------------------------------

     step     eng_tot    temp_tot     eng_cfg     eng_vdw     eng_cou     eng_bnd     eng_ang     eng_dih     eng_tet
 time          eng_pv    temp_rot     vir_cfg     vir_vdw     vir_cou     vir_bnd     vir_ang     vir_con     vir_tet
 cpu time      volume    temp_shl     eng_shl     vir_shl       alpha        beta       gamma     vir_pmf       press

 ------------------------------------------------------------------------------------------------------------------------
      480 -4.1956E+03  3.0536E+03 -4.2805E+03  7.6766E+02 -5.0633E+03  0.0000E+00  0.0000E+00  0.0000E+00  0.0000E+00
 960.000f -4.1947E+03  0.0000E+00  1.6697E+02 -4.8438E+03  4.9803E+03  0.0000E+00  0.0000E+00  0.0000E+00  0.0000E+00
   8.266m  2.2975E+03  0.0000E+00  1.5212E+01  3.0424E+01  8.9931E+01  9.0299E+01  8.9823E+01  0.0000E+00  6.3279E-01

  rolling -4.1991E+03  2.9920E+03 -4.2822E+03  7.5544E+02 -5.0543E+03  0.0000E+00  0.0000E+00  0.0000E+00  0.0000E+00
 averages -4.1994E+03  0.0000E+00  1.6739E+02 -4.7694E+03  4.9036E+03  0.0000E+00  0.0000E+00  0.0000E+00  0.0000E+00
           2.3297E+03  0.0000E+00  1.6616E+01  3.3231E+01  8.9863E+01  8.9903E+01  8.9978E+01  0.0000E+00 -2.5091E-01
 ------------------------------------------------------------------------------------------------------------------------
      490 -4.2017E+03  2.9634E+03 -4.2841E+03  7.5238E+02 -5.0557E+03  0.0000E+00  0.0000E+00  0.0000E+00  0.0000E+00
 980.000f -4.2027E+03  0.0000E+00  1.6750E+02 -4.7567E+03  4.8857E+03  0.0000E+00  0.0000E+00  0.0000E+00  0.0000E+00
   8.465m  2.3175E+03  0.0000E+00  1.9254E+01  3.8507E+01  8.9709E+01  9.0108E+01  8.9966E+01  0.0000E+00 -6.3319E-01

  rolling -4.1993E+03  2.9855E+03 -4.2822E+03  7.5568E+02 -5.0546E+03  0.0000E+00  0.0000E+00  0.0000E+00  0.0000E+00
 averages -4.1995E+03  0.0000E+00  1.6649E+02 -4.7716E+03  4.9048E+03  0.0000E+00  0.0000E+00  0.0000E+00  0.0000E+00
           2.3267E+03  0.0000E+00  1.6644E+01  3.3289E+01  8.9878E+01  8.9913E+01  8.9943E+01  0.0000E+00 -1.2830E-01
 ------------------------------------------------------------------------------------------------------------------------
      500 -4.2021E+03  3.1445E+03 -4.2895E+03  7.5082E+02 -5.0571E+03  0.0000E+00  0.0000E+00  0.0000E+00  0.0000E+00
   1.000p -4.2001E+03  0.0000E+00  1.6877E+02 -4.7515E+03  4.8868E+03  0.0000E+00  0.0000E+00  0.0000E+00  0.0000E+00
   8.647m  2.3252E+03  0.0000E+00  1.6733E+01  3.3467E+01  8.9845E+01  8.9752E+01  9.0350E+01  0.0000E+00  1.3616E+00

  rolling -4.2001E+03  2.9940E+03 -4.2833E+03  7.5413E+02 -5.0543E+03  0.0000E+00  0.0000E+00  0.0000E+00  0.0000E+00
 averages -4.1997E+03  0.0000E+00  1.6548E+02 -4.7639E+03  4.8956E+03  0.0000E+00  0.0000E+00  0.0000E+00  0.0000E+00
           2.3279E+03  0.0000E+00  1.6878E+01  3.3756E+01  8.9893E+01  8.9918E+01  8.9993E+01  0.0000E+00  2.1069E-01
 ------------------------------------------------------------------------------------------------------------------------
      510 -4.2026E+03  2.8316E+03 -4.2813E+03  7.5352E+02 -5.0539E+03  0.0000E+00  0.0000E+00  0.0000E+00  0.0000E+00
   1.020p -4.2038E+03  0.0000E+00  1.6090E+02 -4.7669E+03  4.8895E+03  0.0000E+00  0.0000E+00  0.0000E+00  0.0000E+00
   8.845m  2.3200E+03  0.0000E+00  1.9125E+01  3.8249E+01  8.9837E+01  9.0330E+01  9.0341E+01  0.0000E+00 -7.9921E-01

  rolling -4.2006E+03  3.0047E+03 -4.2841E+03  7.5245E+02 -5.0534E+03  0.0000E+00  0.0000E+00  0.0000E+00  0.0000E+00
 averages -4.2008E+03  0.0000E+00  1.6742E+02 -4.7551E+03  4.8889E+03  0.0000E+00  0.0000E+00  0.0000E+00  0.0000E+00
           2.3289E+03  0.0000E+00  1.6791E+01  3.3581E+01  8.9887E+01  8.9936E+01  9.0038E+01  0.0000E+00 -9.4504E-02
 ------------------------------------------------------------------------------------------------------------------------
      520 -4.2013E+03  2.8039E+03 -4.2792E+03  7.5338E+02 -5.0520E+03  0.0000E+00  0.0000E+00  0.0000E+00  0.0000E+00
   1.040p -4.2006E+03  0.0000E+00  1.5380E+02 -4.7740E+03  4.8890E+03  0.0000E+00  0.0000E+00  0.0000E+00  0.0000E+00
   9.015m  2.3198E+03  0.0000E+00  1.9392E+01  3.8783E+01  9.0501E+01  8.9795E+01  9.0091E+01  0.0000E+00  4.6513E-01

  rolling -4.2009E+03  2.9829E+03 -4.2838E+03  7.5234E+02 -5.0532E+03  0.0000E+00  0.0000E+00  0.0000E+00  0.0000E+00
 averages -4.2011E+03  0.0000E+00  1.6657E+02 -4.7569E+03  4.8893E+03  0.0000E+00  0.0000E+00  0.0000E+00  0.0000E+00
           2.3252E+03  0.0000E+00  1.7113E+01  3.4226E+01  8.9916E+01  8.9949E+01  9.0082E+01  0.0000E+00 -1.7686E-01
 ------------------------------------------------------------------------------------------------------------------------
      530 -4.2014E+03  3.2699E+03 -4.2923E+03  7.4539E+02 -5.0539E+03  0.0000E+00  0.0000E+00  0.0000E+00  0.0000E+00
   1.060p -4.2019E+03  0.0000E+00  1.8326E+02 -4.7341E+03  4.8848E+03  0.0000E+00  0.0000E+00  0.0000E+00  0.0000E+00
   9.191m  2.3264E+03  0.0000E+00  1.6283E+01  3.2565E+01  8.9779E+01  8.9921E+01  8.9905E+01  0.0000E+00 -3.4373E-01

  rolling -4.2010E+03  2.9994E+03 -4.2844E+03  7.5183E+02 -5.0533E+03  0.0000E+00  0.0000E+00  0.0000E+00  0.0000E+00
 averages -4.2011E+03  0.0000E+00  1.6691E+02 -4.7568E+03  4.8895E+03  0.0000E+00  0.0000E+00  0.0000E+00  0.0000E+00
           2.3232E+03  0.0000E+00  1.7080E+01  3.4160E+01  8.9933E+01  8.9905E+01  9.0064E+01  0.0000E+00 -4.5789E-02
 ------------------------------------------------------------------------------------------------------------------------
      540 -4.2023E+03  2.8896E+03 -4.2826E+03  7.5206E+02 -5.0542E+03  0.0000E+00  0.0000E+00  0.0000E+00  0.0000E+00
   1.080p -4.2028E+03  0.0000E+00  1.6213E+02 -4.7645E+03  4.8876E+03  0.0000E+00  0.0000E+00  0.0000E+00  0.0000E+00
   9.368m  2.3151E+03  0.0000E+00  1.9521E+01  3.9042E+01  9.0129E+01  8.9952E+01  9.0151E+01  0.0000E+00 -3.4691E-01

  rolling -4.2012E+03  2.9937E+03 -4.2844E+03  7.5189E+02 -5.0538E+03  0.0000E+00  0.0000E+00  0.0000E+00  0.0000E+00
 averages -4.2013E+03  0.0000E+00  1.6659E+02 -4.7584E+03  4.8901E+03  0.0000E+00  0.0000E+00  0.0000E+00  0.0000E+00
           2.3220E+03  0.0000E+00  1.7439E+01  3.4879E+01  8.9953E+01  8.9941E+01  9.0025E+01  0.0000E+00 -4.4946E-02
 ------------------------------------------------------------------------------------------------------------------------
      550 -4.1967E+03  3.0121E+03 -4.2804E+03  7.6478E+02 -5.0602E+03  0.0000E+00  0.0000E+00  0.0000E+00  0.0000E+00
   1.100p -4.1988E+03  0.0000E+00  1.7347E+02 -4.8362E+03  4.9798E+03  0.0000E+00  0.0000E+00  0.0000E+00  0.0000E+00
   9.543m  2.2882E+03  0.0000E+00  1.4951E+01  2.9901E+01  9.0441E+01  9.0144E+01  8.9918E+01  0.0000E+00 -1.3954E+00

  rolling -4.2011E+03  2.9917E+03 -4.2843E+03  7.5252E+02 -5.0542E+03  0.0000E+00  0.0000E+00  0.0000E+00  0.0000E+00
 averages -4.2013E+03  0.0000E+00  1.6672E+02 -4.7624E+03  4.8942E+03  0.0000E+00  0.0000E+00  0.0000E+00  0.0000E+00
           2.3209E+03  0.0000E+00  1.7456E+01  3.4913E+01  8.9974E+01  8.9942E+01  9.0043E+01  0.0000E+00 -1.0125E-01
 ------------------------------------------------------------------------------------------------------------------------
 ------------------------------------------------------------------------------------------------------------------------

     step     eng_tot    temp_tot     eng_cfg     eng_vdw     eng_cou     eng_bnd     eng_ang     eng_dih     eng_tet
 time          eng_pv    temp_rot     vir_cfg     vir_vdw     vir_cou     vir_bnd     vir_ang     vir_con     vir_tet
 cpu time      volume    temp_shl     eng_shl     vir_shl       alpha        beta       gamma     vir_pmf       press

 ------------------------------------------------------------------------------------------------------------------------
      560 -4.1918E+03  2.8412E+03 -4.2708E+03  7.8642E+02 -5.0746E+03  0.0000E+00  0.0000E+00  0.0000E+00  0.0000E+00
   1.120p -4.1877E+03  0.0000E+00  1.4568E+02 -4.9529E+03  5.0638E+03  0.0000E+00  0.0000E+00  0.0000E+00  0.0000E+00
   9.721m  2.2678E+03  0.0000E+00  1.7400E+01  3.4800E+01  8.9928E+01  9.0277E+01  9.0087E+01  0.0000E+00  2.8444E+00

  rolling -4.2006E+03  2.9804E+03 -4.2834E+03  7.5445E+02 -5.0553E+03  0.0000E+00  0.0000E+00  0.0000E+00  0.0000E+00
 averages -4.2010E+03  0.0000E+00  1.6701E+02 -4.7734E+03  4.9054E+03  0.0000E+00  0.0000E+00  0.0000E+00  0.0000E+00
           2.3168E+03  0.0000E+00  1.7482E+01  3.4963E+01  8.9964E+01  8.9955E+01  9.0047E+01  0.0000E+00 -3.1316E-01
 ------------------------------------------------------------------------------------------------------------------------
      570 -4.2021E+03  3.0575E+03 -4.2870E+03  7.5029E+02 -5.0525E+03  0.0000E+00  0.0000E+00  0.0000E+00  0.0000E+00
   1.140p -4.2008E+03  0.0000E+00  1.6620E+02 -4.7475E+03  4.8834E+03  0.0000E+00  0.0000E+00  0.0000E+00  0.0000E+00
   9.897m  2.3328E+03  0.0000E+00  1.5189E+01  3.0377E+01  8.9879E+01  8.9765E+01  9.0159E+01  0.0000E+00  8.4570E-01

  rolling -4.2003E+03  2.9826E+03 -4.2832E+03  7.5580E+02 -5.0565E+03  0.0000E+00  0.0000E+00  0.0000E+00  0.0000E+00
 averages -4.2003E+03  0.0000E+00  1.6576E+02 -4.7824E+03  4.9132E+03  0.0000E+00  0.0000E+00  0.0000E+00  0.0000E+00
           2.3133E+03  0.0000E+00  1.7497E+01  3.4993E+01  8.9955E+01  8.9980E+01  9.0079E+01  0.0000E+00 -5.5224E-04
 ------------------------------------------------------------------------------------------------------------------------
      580 -4.2019E+03  2.9333E+03 -4.2834E+03  7.5299E+02 -5.0528E+03  0.0000E+00  0.0000E+00  0.0000E+00  0.0000E+00
   1.160p -4.2017E+03  0.0000E+00  1.6244E+02 -4.7540E+03  4.8837E+03  0.0000E+00  0.0000E+00  0.0000E+00  0.0000E+00
  10.079m  2.3378E+03  0.0000E+00  1.6360E+01  3.2720E+01  8.9986E+01  8.9954E+01  8.9926E+01  0.0000E+00  1.3630E-01

  rolling -4.2006E+03  2.9804E+03 -4.2834E+03  7.5544E+02 -5.0562E+03  0.0000E+00  0.0000E+00  0.0000E+00  0.0000E+00
 averages -4.2003E+03  0.0000E+00  1.6474E+02 -4.7802E+03  4.9102E+03  0.0000E+00  0.0000E+00  0.0000E+00  0.0000E+00
           2.3152E+03  0.0000E+00  1.7335E+01  3.4669E+01  8.9948E+01  8.9986E+01  9.0095E+01  0.0000E+00  2.0585E-01
 ------------------------------------------------------------------------------------------------------------------------
      590 -4.2016E+03  3.0109E+03 -4.2852E+03  7.4738E+02 -5.0467E+03  0.0000E+00  0.0000E+00  0.0000E+00  0.0000E+00
   1.180p -4.2044E+03  0.0000E+00  1.7577E+02 -4.7309E+03  4.8785E+03  0.0000E+00  0.0000E+00  0.0000E+00  0.0000E+00
  10.252m  2.3367E+03  0.0000E+00  1.4075E+01  2.8150E+01  9.0032E+01  9.0438E+01  8.9805E+01  0.0000E+00 -1.8975E+00

  rolling -4.2001E+03  2.9761E+03 -4.2828E+03  7.5689E+02 -5.0569E+03  0.0000E+00  0.0000E+00  0.0000E+00  0.0000E+00
 averages -4.1999E+03  0.0000E+00  1.6495E+02 -4.7877E+03  4.9183E+03  0.0000E+00  0.0000E+00  0.0000E+00  0.0000E+00
           2.3145E+03  0.0000E+00  1.7188E+01  3.4377E+01  8.9974E+01  9.0018E+01  9.0101E+01  0.0000E+00  9.8978E-02
 ------------------------------------------------------------------------------------------------------------------------
      600 -4.2016E+03  2.8868E+03 -4.2818E+03  7.5428E+02 -5.0523E+03  0.0000E+00  0.0000E+00  0.0000E+00  0.0000E+00
   1.200p -4.2019E+03  0.0000E+00  1.6141E+02 -4.7531E+03  4.8823E+03  0.0000E+00  0.0000E+00  0.0000E+00  0.0000E+00
  10.419m  2.3415E+03  0.0000E+00  1.6120E+01  3.2240E+01  9.0097E+01  8.9760E+01  9.0089E+01  0.0000E+00 -2.1534E-01

  rolling -4.2001E+03  2.9649E+03 -4.2825E+03  7.5702E+02 -5.0563E+03  0.0000E+00  0.0000E+00  0.0000E+00  0.0000E+00
 averages -4.1999E+03  0.0000E+00  1.6439E+02 -4.7872E+03  4.9178E+03  0.0000E+00  0.0000E+00  0.0000E+00  0.0000E+00
           2.3167E+03  0.0000E+00  1.6864E+01  3.3727E+01  8.9996E+01  9.0013E+01  9.0074E+01  0.0000E+00  8.5079E-02
 ------------------------------------------------------------------------------------------------------------------------
      610 -4.1992E+03  3.0484E+03 -4.2839E+03  7.6273E+02 -5.0630E+03  0.0000E+00  0.0000E+00  0.0000E+00  0.0000E+00
   1.220p -4.1937E+03  0.0000E+00  1.5297E+02 -4.8182E+03  4.9385E+03  0.0000E+00  0.0000E+00  0.0000E+00  0.0000E+00
  10.577m  2.3152E+03  0.0000E+00  1.6359E+01  3.2718E+01  9.0373E+01  8.9531E+01  9.0036E+01  0.0000E+00  3.7491E+00

  rolling -4.1999E+03  2.9535E+03 -4.2820E+03  7.5719E+02 -5.0560E+03  0.0000E+00  0.0000E+00  0.0000E+00  0.0000E+00
 averages -4.1999E+03  0.0000E+00  1.6420E+02 -4.7877E+03  4.9183E+03  0.0000E+00  0.0000E+00  0.0000E+00  0.0000E+00
           2.3169E+03  0.0000E+00  1.6787E+01  3.3573E+01  9.0039E+01  9.0002E+01  9.0075E+01  0.0000E+00 -1.5232E-02
 ------------------------------------------------------------------------------------------------------------------------
      620 -4.1959E+03  2.9379E+03 -4.2776E+03  7.6621E+02 -5.0599E+03  0.0000E+00  0.0000E+00  0.0000E+00  0.0000E+00
   1.240p -4.2012E+03  0.0000E+00  1.7920E+02 -4.8314E+03  4.9783E+03  0.0000E+00  0.0000E+00  0.0000E+00  0.0000E+00
  10.766m  2.2990E+03  0.0000E+00  1.6116E+01  3.2232E+01  9.0633E+01  8.9868E+01  9.0188E+01  0.0000E+00 -3.6454E+00

  rolling -4.1992E+03  2.9826E+03 -4.2821E+03  7.5897E+02 -5.0574E+03  0.0000E+00  0.0000E+00  0.0000E+00  0.0000E+00
 averages -4.1993E+03  0.0000E+00  1.6613E+02 -4.7967E+03  4.9300E+03  0.0000E+00  0.0000E+00  0.0000E+00  0.0000E+00
           2.3147E+03  0.0000E+00  1.6377E+01  3.2755E+01  8.9996E+01  8.9988E+01  9.0052E+01  0.0000E+00 -9.1985E-02
 ------------------------------------------------------------------------------------------------------------------------
      630 -4.2021E+03  3.0682E+03 -4.2874E+03  7.4952E+02 -5.0521E+03  0.0000E+00  0.0000E+00  0.0000E+00  0.0000E+00
   1.260p -4.2016E+03  0.0000E+00  1.6902E+02 -4.7455E+03  4.8843E+03  0.0000E+00  0.0000E+00  0.0000E+00  0.0000E+00
  10.941m  2.3209E+03  0.0000E+00  1.5148E+01  3.0296E+01  9.0073E+01  8.9777E+01  8.9965E+01  0.0000E+00  3.4512E-01

  rolling -4.1992E+03  2.9703E+03 -4.2818E+03  7.5952E+02 -5.0575E+03  0.0000E+00  0.0000E+00  0.0000E+00  0.0000E+00
 averages -4.1992E+03  0.0000E+00  1.6513E+02 -4.7984E+03  4.9311E+03  0.0000E+00  0.0000E+00  0.0000E+00  0.0000E+00
           2.3140E+03  0.0000E+00  1.6234E+01  3.2468E+01  9.0000E+01  8.9981E+01  9.0064E+01  0.0000E+00 -1.8961E-02
 ------------------------------------------------------------------------------------------------------------------------
 ------------------------------------------------------------------------------------------------------------------------

     step     eng_tot    temp_tot     eng_cfg     eng_vdw     eng_cou     eng_bnd     eng_ang     eng_dih     eng_tet
 time          eng_pv    temp_rot     vir_cfg     vir_vdw     vir_cou     vir_bnd     vir_ang     vir_con     vir_tet
 cpu time      volume    temp_shl     eng_shl     vir_shl       alpha        beta       gamma     vir_pmf       press

 ------------------------------------------------------------------------------------------------------------------------
      640 -4.2020E+03  2.8730E+03 -4.2818E+03  7.5403E+02 -5.0543E+03  0.0000E+00  0.0000E+00  0.0000E+00  0.0000E+00
   1.280p -4.2018E+03  0.0000E+00  1.5915E+02 -4.7631E+03  4.8853E+03  0.0000E+00  0.0000E+00  0.0000E+00  0.0000E+00
  11.097m  2.3236E+03  0.0000E+00  1.8487E+01  3.6975E+01  9.0155E+01  8.9982E+01  9.0684E+01  0.0000E+00  1.2214E-01

  rolling -4.1992E+03  2.9613E+03 -4.2815E+03  7.5974E+02 -5.0573E+03  0.0000E+00  0.0000E+00  0.0000E+00  0.0000E+00
 averages -4.1991E+03  0.0000E+00  1.6433E+02 -4.7986E+03  4.9308E+03  0.0000E+00  0.0000E+00  0.0000E+00  0.0000E+00
           2.3143E+03  0.0000E+00  1.6053E+01  3.2106E+01  9.0019E+01  8.9979E+01  9.0102E+01  0.0000E+00  4.8272E-02
 ------------------------------------------------------------------------------------------------------------------------
      650 -4.2018E+03  3.0572E+03 -4.2868E+03  7.4966E+02 -5.0525E+03  0.0000E+00  0.0000E+00  0.0000E+00  0.0000E+00
   1.300p -4.2026E+03  0.0000E+00  1.7220E+02 -4.7458E+03  4.8859E+03  0.0000E+00  0.0000E+00  0.0000E+00  0.0000E+00
  11.270m  2.3204E+03  0.0000E+00  1.6079E+01  3.2159E+01  8.9620E+01  8.9895E+01  9.0129E+01  0.0000E+00 -5.1677E-01

  rolling -4.1994E+03  2.9631E+03 -4.2818E+03  7.5931E+02 -5.0572E+03  0.0000E+00  0.0000E+00  0.0000E+00  0.0000E+00
 averages -4.1992E+03  0.0000E+00  1.6395E+02 -4.7951E+03  4.9267E+03  0.0000E+00  0.0000E+00  0.0000E+00  0.0000E+00
           2.3162E+03  0.0000E+00  1.6171E+01  3.2342E+01  8.9997E+01  8.9972E+01  9.0137E+01  0.0000E+00  1.5922E-01
 ------------------------------------------------------------------------------------------------------------------------
      660 -4.1992E+03  2.8716E+03 -4.2790E+03  7.6063E+02 -5.0587E+03  0.0000E+00  0.0000E+00  0.0000E+00  0.0000E+00
   1.320p -4.2017E+03  0.0000E+00  1.6717E+02 -4.8111E+03  4.9401E+03  0.0000E+00  0.0000E+00  0.0000E+00  0.0000E+00
  11.446m  2.2903E+03  0.0000E+00  1.9087E+01  3.8175E+01  9.0405E+01  9.0095E+01  9.0241E+01  0.0000E+00 -1.7391E+00

  rolling -4.1996E+03  2.9728E+03 -4.2823E+03  7.5849E+02 -5.0569E+03  0.0000E+00  0.0000E+00  0.0000E+00  0.0000E+00
 averages -4.1995E+03  0.0000E+00  1.6470E+02 -4.7904E+03  4.9227E+03  0.0000E+00  0.0000E+00  0.0000E+00  0.0000E+00
           2.3174E+03  0.0000E+00  1.6174E+01  3.2347E+01  8.9995E+01  8.9949E+01  9.0151E+01  0.0000E+00  1.1106E-01
 ------------------------------------------------------------------------------------------------------------------------
      670 -4.2025E+03  3.0205E+03 -4.2865E+03  7.4727E+02 -5.0515E+03  0.0000E+00  0.0000E+00  0.0000E+00  0.0000E+00
   1.340p -4.2030E+03  0.0000E+00  1.6928E+02 -4.7571E+03  4.8910E+03  0.0000E+00  0.0000E+00  0.0000E+00  0.0000E+00
  11.605m  2.2844E+03  0.0000E+00  1.7696E+01  3.5392E+01  9.0888E+01  9.0083E+01  9.0175E+01  0.0000E+00 -3.2041E-01

  rolling -4.2001E+03  2.9684E+03 -4.2826E+03  7.5682E+02 -5.0558E+03  0.0000E+00  0.0000E+00  0.0000E+00  0.0000E+00
 averages -4.2004E+03  0.0000E+00  1.6595E+02 -4.7828E+03  4.9159E+03  0.0000E+00  0.0000E+00  0.0000E+00  0.0000E+00
           2.3161E+03  0.0000E+00  1.6418E+01  3.2837E+01  9.0078E+01  8.9937E+01  9.0142E+01  0.0000E+00 -2.3186E-01
 ------------------------------------------------------------------------------------------------------------------------
      680 -4.2029E+03  3.1704E+03 -4.2910E+03  7.4667E+02 -5.0555E+03  0.0000E+00  0.0000E+00  0.0000E+00  0.0000E+00
   1.360p -4.2022E+03  0.0000E+00  1.7416E+02 -4.7517E+03  4.8901E+03  0.0000E+00  0.0000E+00  0.0000E+00  0.0000E+00
  11.779m  2.2943E+03  0.0000E+00  1.7861E+01  3.5722E+01  8.9622E+01  8.9804E+01  9.0233E+01  0.0000E+00  4.7234E-01

  rolling -4.2002E+03  2.9792E+03 -4.2830E+03  7.5644E+02 -5.0561E+03  0.0000E+00  0.0000E+00  0.0000E+00  0.0000E+00
 averages -4.2005E+03  0.0000E+00  1.6645E+02 -4.7836E+03  4.9167E+03  0.0000E+00  0.0000E+00  0.0000E+00  0.0000E+00
           2.3113E+03  0.0000E+00  1.6658E+01  3.3316E+01  9.0103E+01  8.9960E+01  9.0155E+01  0.0000E+00 -2.0768E-01
 ------------------------------------------------------------------------------------------------------------------------
      690 -4.2033E+03  2.9988E+03 -4.2867E+03  7.4915E+02 -5.0540E+03  0.0000E+00  0.0000E+00  0.0000E+00  0.0000E+00
   1.380p -4.2028E+03  0.0000E+00  1.6493E+02 -4.7599E+03  4.8885E+03  0.0000E+00  0.0000E+00  0.0000E+00  0.0000E+00
  11.933m  2.2973E+03  0.0000E+00  1.8186E+01  3.6371E+01  8.9518E+01  8.9735E+01  8.9935E+01  0.0000E+00  4.0217E-01

  rolling -4.2009E+03  2.9922E+03 -4.2840E+03  7.5438E+02 -5.0554E+03  0.0000E+00  0.0000E+00  0.0000E+00  0.0000E+00
 averages -4.2011E+03  0.0000E+00  1.6709E+02 -4.7749E+03  4.9081E+03  0.0000E+00  0.0000E+00  0.0000E+00  0.0000E+00
           2.3097E+03  0.0000E+00  1.6957E+01  3.3915E+01  9.0045E+01  8.9885E+01  9.0156E+01  0.0000E+00 -1.8371E-01
 ------------------------------------------------------------------------------------------------------------------------
      700 -4.2025E+03  2.8943E+03 -4.2830E+03  7.5638E+02 -5.0578E+03  0.0000E+00  0.0000E+00  0.0000E+00  0.0000E+00
   1.400p -4.2005E+03  0.0000E+00  1.5464E+02 -4.7727E+03  4.8905E+03  0.0000E+00  0.0000E+00  0.0000E+00  0.0000E+00
  12.091m  2.3309E+03  0.0000E+00  1.8451E+01  3.6903E+01  8.9670E+01  9.0258E+01  9.0307E+01  0.0000E+00  1.4080E+00

  rolling -4.2010E+03  2.9929E+03 -4.2842E+03  7.5443E+02 -5.0558E+03  0.0000E+00  0.0000E+00  0.0000E+00  0.0000E+00
 averages -4.2011E+03  0.0000E+00  1.6652E+02 -4.7767E+03  4.9088E+03  0.0000E+00  0.0000E+00  0.0000E+00  0.0000E+00
           2.3072E+03  0.0000E+00  1.7217E+01  3.4435E+01  9.0000E+01  8.9904E+01  9.0177E+01  0.0000E+00 -4.5084E-02
 ------------------------------------------------------------------------------------------------------------------------
      710 -4.1923E+03  3.1288E+03 -4.2792E+03  7.7808E+02 -5.0735E+03  0.0000E+00  0.0000E+00  0.0000E+00  0.0000E+00
   1.420p -4.1935E+03  0.0000E+00  1.7766E+02 -4.9146E+03  5.0598E+03  0.0000E+00  0.0000E+00  0.0000E+00  0.0000E+00
  12.273m  2.2713E+03  0.0000E+00  1.6223E+01  3.2445E+01  9.0177E+01  9.0393E+01  9.0542E+01  0.0000E+00 -8.7041E-01

  rolling -4.2003E+03  2.9979E+03 -4.2837E+03  7.5647E+02 -5.0574E+03  0.0000E+00  0.0000E+00  0.0000E+00  0.0000E+00
 averages -4.2006E+03  0.0000E+00  1.6751E+02 -4.7884E+03  4.9212E+03  0.0000E+00  0.0000E+00  0.0000E+00  0.0000E+00
           2.3034E+03  0.0000E+00  1.7315E+01  3.4631E+01  8.9981E+01  8.9953E+01  9.0179E+01  0.0000E+00 -2.1216E-01
 ------------------------------------------------------------------------------------------------------------------------
 ------------------------------------------------------------------------------------------------------------------------

     step     eng_tot    temp_tot     eng_cfg     eng_vdw     eng_cou     eng_bnd     eng_ang     eng_dih     eng_tet
 time          eng_pv    temp_rot     vir_cfg     vir_vdw     vir_cou     vir_bnd     vir_ang     vir_con     vir_tet
 cpu time      volume    temp_shl     eng_shl     vir_shl       alpha        beta       gamma     vir_pmf       press

 ------------------------------------------------------------------------------------------------------------------------
      720 -4.1916E+03  2.7592E+03 -4.2683E+03  7.9014E+02 -5.0758E+03  0.0000E+00  0.0000E+00  0.0000E+00  0.0000E+00
   1.440p -4.1897E+03  0.0000E+00  1.4763E+02 -4.9472E+03  5.0601E+03  0.0000E+00  0.0000E+00  0.0000E+00  0.0000E+00
  12.451m  2.2895E+03  0.0000E+00  1.7381E+01  3.4762E+01  8.9796E+01  8.9203E+01  9.0126E+01  0.0000E+00  1.3193E+00

  rolling -4.2001E+03  2.9874E+03 -4.2831E+03  7.5766E+02 -5.0582E+03  0.0000E+00  0.0000E+00  0.0000E+00  0.0000E+00
 averages -4.2002E+03  0.0000E+00  1.6622E+02 -4.7951E+03  4.9265E+03  0.0000E+00  0.0000E+00  0.0000E+00  0.0000E+00
           2.3016E+03  0.0000E+00  1.7435E+01  3.4870E+01  8.9993E+01  8.9916E+01  9.0202E+01  0.0000E+00 -4.5946E-02
 ------------------------------------------------------------------------------------------------------------------------
      730 -4.2012E+03  2.8973E+03 -4.2817E+03  7.5581E+02 -5.0547E+03  0.0000E+00  0.0000E+00  0.0000E+00  0.0000E+00
   1.460p -4.2002E+03  0.0000E+00  1.5803E+02 -4.7690E+03  4.8927E+03  0.0000E+00  0.0000E+00  0.0000E+00  0.0000E+00
  12.616m  2.3436E+03  0.0000E+00  1.7178E+01  3.4356E+01  9.0317E+01  9.0000E+01  9.0270E+01  0.0000E+00  6.7667E-01

  rolling -4.1996E+03  2.9873E+03 -4.2826E+03  7.5947E+02 -5.0596E+03  0.0000E+00  0.0000E+00  0.0000E+00  0.0000E+00
 averages -4.1994E+03  0.0000E+00  1.6554E+02 -4.8038E+03  4.9344E+03  0.0000E+00  0.0000E+00  0.0000E+00  0.0000E+00
           2.3019E+03  0.0000E+00  1.7454E+01  3.4907E+01  8.9993E+01  8.9923E+01  9.0213E+01  0.0000E+00  1.0652E-01
 ------------------------------------------------------------------------------------------------------------------------
      740 -4.2002E+03  2.8711E+03 -4.2800E+03  7.5355E+02 -5.0503E+03  0.0000E+00  0.0000E+00  0.0000E+00  0.0000E+00
   1.480p -4.2051E+03  0.0000E+00  1.7426E+02 -4.7423E+03  4.8832E+03  0.0000E+00  0.0000E+00  0.0000E+00  0.0000E+00
  12.786m  2.3606E+03  0.0000E+00  1.6683E+01  3.3365E+01  8.9996E+01  8.9863E+01  9.0040E+01  0.0000E+00 -3.2768E+00

  rolling -4.1991E+03  2.9776E+03 -4.2818E+03  7.6114E+02 -5.0604E+03  0.0000E+00  0.0000E+00  0.0000E+00  0.0000E+00
 averages -4.1988E+03  0.0000E+00  1.6468E+02 -4.8114E+03  4.9412E+03  0.0000E+00  0.0000E+00  0.0000E+00  0.0000E+00
           2.3033E+03  0.0000E+00  1.7449E+01  3.4899E+01  8.9981E+01  8.9930E+01  9.0177E+01  0.0000E+00  1.7258E-01
 ------------------------------------------------------------------------------------------------------------------------
      750 -4.1996E+03  2.8522E+03 -4.2789E+03  7.5526E+02 -5.0534E+03  0.0000E+00  0.0000E+00  0.0000E+00  0.0000E+00
   1.500p -4.2007E+03  0.0000E+00  1.6182E+02 -4.7638E+03  4.8872E+03  0.0000E+00  0.0000E+00  0.0000E+00  0.0000E+00
  12.958m  2.3467E+03  0.0000E+00  1.9217E+01  3.8433E+01  9.0190E+01  8.9779E+01  9.0069E+01  0.0000E+00 -7.3786E-01

  rolling -4.1989E+03  2.9573E+03 -4.2811E+03  7.6172E+02 -5.0604E+03  0.0000E+00  0.0000E+00  0.0000E+00  0.0000E+00
 averages -4.1987E+03  0.0000E+00  1.6378E+02 -4.8129E+03  4.9414E+03  0.0000E+00  0.0000E+00  0.0000E+00  0.0000E+00
           2.3065E+03  0.0000E+00  1.7606E+01  3.5212E+01  9.0012E+01  8.9898E+01  9.0142E+01  0.0000E+00  1.2241E-01
 ------------------------------------------------------------------------------------------------------------------------
      760 -4.2001E+03  3.0679E+03 -4.2854E+03  7.5035E+02 -5.0532E+03  0.0000E+00  0.0000E+00  0.0000E+00  0.0000E+00
   1.520p -4.2025E+03  0.0000E+00  1.7769E+02 -4.7427E+03  4.8855E+03  0.0000E+00  0.0000E+00  0.0000E+00  0.0000E+00
  13.121m  2.3288E+03  0.0000E+00  1.7445E+01  3.4890E+01  9.0238E+01  9.0064E+01  9.0405E+01  0.0000E+00 -1.6240E+00

  rolling -4.1991E+03  2.9612E+03 -4.2814E+03  7.6063E+02 -5.0597E+03  0.0000E+00  0.0000E+00  0.0000E+00  0.0000E+00
 averages -4.1988E+03  0.0000E+00  1.6376E+02 -4.8056E+03  4.9341E+03  0.0000E+00  0.0000E+00  0.0000E+00  0.0000E+00
           2.3111E+03  0.0000E+00  1.7661E+01  3.5322E+01  9.0050E+01  8.9911E+01  9.0161E+01  0.0000E+00  1.7860E-01
 ------------------------------------------------------------------------------------------------------------------------
      770 -4.2013E+03  3.1698E+03 -4.2894E+03  7.4920E+02 -5.0540E+03  0.0000E+00  0.0000E+00  0.0000E+00  0.0000E+00
   1.540p -4.1990E+03  0.0000E+00  1.6943E+02 -4.7479E+03  4.8866E+03  0.0000E+00  0.0000E+00  0.0000E+00  0.0000E+00
  13.314m  2.3191E+03  0.0000E+00  1.5402E+01  3.0804E+01  9.0413E+01  9.0065E+01  9.0235E+01  0.0000E+00  1.5346E+00

  rolling -4.1989E+03  2.9768E+03 -4.2817E+03  7.6063E+02 -5.0599E+03  0.0000E+00  0.0000E+00  0.0000E+00  0.0000E+00
 averages -4.1987E+03  0.0000E+00  1.6471E+02 -4.8041E+03  4.9337E+03  0.0000E+00  0.0000E+00  0.0000E+00  0.0000E+00
           2.3135E+03  0.0000E+00  1.7569E+01  3.5138E+01  9.0002E+01  8.9931E+01  9.0184E+01  0.0000E+00  1.6106E-01
 ------------------------------------------------------------------------------------------------------------------------
      780 -4.2012E+03  2.8998E+03 -4.2818E+03  7.5154E+02 -5.0512E+03  0.0000E+00  0.0000E+00  0.0000E+00  0.0000E+00
   1.560p -4.2023E+03  0.0000E+00  1.6455E+02 -4.7535E+03  4.8823E+03  0.0000E+00  0.0000E+00  0.0000E+00  0.0000E+00
  13.463m  2.3245E+03  0.0000E+00  1.7892E+01  3.5784E+01  9.0367E+01  9.0126E+01  9.0493E+01  0.0000E+00 -7.6393E-01

  rolling -4.1988E+03  2.9676E+03 -4.2813E+03  7.6095E+02 -5.0596E+03  0.0000E+00  0.0000E+00  0.0000E+00  0.0000E+00
 averages -4.1986E+03  0.0000E+00  1.6429E+02 -4.8031E+03  4.9328E+03  0.0000E+00  0.0000E+00  0.0000E+00  0.0000E+00
           2.3173E+03  0.0000E+00  1.7336E+01  3.4672E+01  9.0029E+01  8.9922E+01  9.0200E+01  0.0000E+00  1.3888E-01
 ------------------------------------------------------------------------------------------------------------------------
      790 -4.2010E+03  3.0673E+03 -4.2863E+03  7.4981E+02 -5.0520E+03  0.0000E+00  0.0000E+00  0.0000E+00  0.0000E+00
   1.580p -4.2001E+03  0.0000E+00  1.6779E+02 -4.7457E+03  4.8816E+03  0.0000E+00  0.0000E+00  0.0000E+00  0.0000E+00
  13.617m  2.3286E+03  0.0000E+00  1.5958E+01  3.1916E+01  8.9725E+01  9.0218E+01  8.9813E+01  0.0000E+00  6.1015E-01

  rolling -4.1986E+03  2.9564E+03 -4.2807E+03  7.6132E+02 -5.0594E+03  0.0000E+00  0.0000E+00  0.0000E+00  0.0000E+00
 averages -4.1984E+03  0.0000E+00  1.6365E+02 -4.8034E+03  4.9324E+03  0.0000E+00  0.0000E+00  0.0000E+00  0.0000E+00
           2.3201E+03  0.0000E+00  1.7316E+01  3.4633E+01  9.0078E+01  8.9991E+01  9.0210E+01  0.0000E+00  1.4377E-01
 ------------------------------------------------------------------------------------------------------------------------
 ------------------------------------------------------------------------------------------------------------------------

     step     eng_tot    temp_tot     eng_cfg     eng_vdw     eng_cou     eng_bnd     eng_ang     eng_dih     eng_tet
 time          eng_pv    temp_rot     vir_cfg     vir_vdw     vir_cou     vir_bnd     vir_ang     vir_con     vir_tet
 cpu time      volume    temp_shl     eng_shl     vir_shl       alpha        beta       gamma     vir_pmf       press

 ------------------------------------------------------------------------------------------------------------------------
      800 -4.2019E+03  3.0911E+03 -4.2878E+03  7.4692E+02 -5.0511E+03  0.0000E+00  0.0000E+00  0.0000E+00  0.0000E+00
   1.600p -4.2025E+03  0.0000E+00  1.7365E+02 -4.7387E+03  4.8796E+03  0.0000E+00  0.0000E+00  0.0000E+00  0.0000E+00
  13.772m  2.3246E+03  0.0000E+00  1.6392E+01  3.2783E+01  8.9911E+01  9.0097E+01  8.9994E+01  0.0000E+00 -4.1750E-01

  rolling -4.1984E+03  2.9734E+03 -4.2811E+03  7.6065E+02 -5.0587E+03  0.0000E+00  0.0000E+00  0.0000E+00  0.0000E+00
 averages -4.1985E+03  0.0000E+00  1.6539E+02 -4.7997E+03  4.9311E+03  0.0000E+00  0.0000E+00  0.0000E+00  0.0000E+00
           2.3215E+03  0.0000E+00  1.7000E+01  3.3999E+01  9.0092E+01  8.9986E+01  9.0189E+01  0.0000E+00 -3.6673E-02
[...]
    3.6328  5.589648E-01  1.146412E+01
    3.6797  4.419605E-01  1.162824E+01
    3.7266  4.187566E-01  1.178773E+01
    3.7734  3.574394E-01  1.192731E+01
    3.8203  3.718543E-01  1.207616E+01
    3.8672  3.651519E-01  1.222593E+01
    3.9141  3.983296E-01  1.239329E+01
    3.9609  4.228502E-01  1.257523E+01
    4.0078  4.046094E-01  1.275347E+01
    4.0547  4.841245E-01  1.297176E+01
    4.1016  5.042288E-01  1.320440E+01
    4.1484  5.252678E-01  1.345231E+01
    4.1953  5.433276E-01  1.371458E+01
    4.2422  5.876679E-01  1.400463E+01
    4.2891  5.877398E-01  1.430116E+01
    4.3359  5.759986E-01  1.459815E+01
    4.3828  5.545165E-01  1.489028E+01
    4.4297  5.583281E-01  1.519074E+01
    4.4766  5.829185E-01  1.551111E+01
    4.5234  5.135625E-01  1.579931E+01
    4.5703  5.224779E-01  1.609861E+01
    4.6172  5.728947E-01  1.643356E+01
    4.6641  5.447531E-01  1.675856E+01
    4.7109  5.453758E-01  1.709051E+01
    4.7578  5.544442E-01  1.743472E+01
    4.8047  6.281371E-01  1.783241E+01
    4.8516  6.899275E-01  1.827778E+01
    4.8984  7.925155E-01  1.879931E+01
    4.9453  8.686753E-01  1.938194E+01
    4.9922  9.851986E-01  2.005532E+01
    5.0391  1.120524E+00  2.083565E+01
    5.0859  1.209928E+00  2.169398E+01
    5.1328  1.407063E+00  2.271065E+01
    5.1797  1.539639E+00  2.384352E+01
    5.2266  1.569925E+00  2.501968E+01
    5.2734  1.703911E+00  2.631921E+01
    5.3203  1.751547E+00  2.767894E+01
    5.3672  1.807815E+00  2.910718E+01
    5.4141  1.757066E+00  3.051968E+01
    5.4609  1.661652E+00  3.187870E+01
    5.5078  1.640723E+00  3.324375E+01
    5.5547  1.561447E+00  3.456505E+01
    5.6016  1.462256E+00  3.582338E+01
    5.6484  1.306607E+00  3.696667E+01
    5.6953  1.191251E+00  3.802639E+01
    5.7422  1.130668E+00  3.904884E+01
    5.7891  1.059543E+00  4.002269E+01
    5.8359  9.796439E-01  4.093773E+01
    5.8828  9.401931E-01  4.183009E+01
    5.9297  9.037829E-01  4.270162E+01
    5.9766  8.731207E-01  4.355694E+01

g(r)  :Mg      O_      

        r      g(r)         n(r)

    1.2422  0.000000E+00  0.000000E+00
    1.2891  0.000000E+00  0.000000E+00
    1.3359  7.093155E-03  3.472222E-04
    1.3828  1.544774E-02  1.157407E-03
    1.4297  2.683844E-02  2.662037E-03
    1.4766  8.903335E-02  7.986111E-03
    1.5234  1.818241E-01  1.956019E-02
    1.5703  3.029032E-01  4.004630E-02
    1.6172  5.147241E-01  7.696759E-02
    1.6641  8.015909E-01  1.378472E-01
    1.7109  1.107136E+00  2.267361E-01
    1.7578  1.559661E+00  3.589120E-01
    1.8047  1.871000E+00  5.260417E-01
    1.8516  2.315388E+00  7.437500E-01
    1.8984  2.572470E+00  9.980324E-01
    1.9453  2.897173E+00  1.298727E+00
    1.9922  2.949586E+00  1.619792E+00
    2.0391  2.998232E+00  1.961690E+00
    2.0859  2.903795E+00  2.308218E+00
    2.1328  2.703347E+00  2.645486E+00
    2.1797  2.556352E+00  2.978588E+00
    2.2266  2.381754E+00  3.302431E+00
    2.2734  2.068182E+00  3.595602E+00
    2.3203  1.878864E+00  3.873032E+00
    2.3672  1.638003E+00  4.124769E+00
    2.4141  1.441769E+00  4.355208E+00
    2.4609  1.312809E+00  4.573264E+00
    2.5078  1.109859E+00  4.764699E+00
    2.5547  1.030061E+00  4.949074E+00
    2.6016  8.635838E-01  5.109375E+00
    2.6484  6.774584E-01  5.239699E+00
    2.6953  6.314448E-01  5.365509E+00
    2.7422  5.123903E-01  5.471181E+00
    2.7891  4.340086E-01  5.563773E+00
    2.8359  3.919696E-01  5.650231E+00
    2.8828  3.194062E-01  5.723032E+00
    2.9297  2.832081E-01  5.789699E+00
    2.9766  2.462559E-01  5.849537E+00
    3.0234  2.608391E-01  5.914931E+00
    3.0703  2.363716E-01  5.976042E+00
    3.1172  2.141154E-01  6.033102E+00
    3.1641  2.482860E-01  6.101273E+00
    3.2109  2.799753E-01  6.180440E+00
    3.2578  3.351992E-01  6.278009E+00
    3.3047  3.798573E-01  6.391782E+00
    3.3516  4.519589E-01  6.531019E+00
    3.3984  5.422549E-01  6.702778E+00
    3.4453  6.289251E-01  6.907523E+00
    3.4922  7.332707E-01  7.152778E+00
    3.5391  8.376321E-01  7.440509E+00
    3.5859  9.054722E-01  7.759838E+00
    3.6328  9.967353E-01  8.120602E+00
    3.6797  1.105836E+00  8.531250E+00
    3.7266  1.115874E+00  8.956250E+00
    3.7734  1.180202E+00  9.417130E+00
    3.8203  1.136093E+00  9.871875E+00
    3.8672  1.142017E+00  1.034028E+01
    3.9141  1.133284E+00  1.081644E+01
    3.9609  1.085907E+00  1.128368E+01
    4.0078  1.002065E+00  1.172512E+01
    4.0547  9.300017E-01  1.214444E+01
    4.1016  8.890483E-01  1.255463E+01
    4.1484  8.021246E-01  1.293322E+01
    4.1953  8.128334E-01  1.332558E+01
    4.2422  8.017703E-01  1.372130E+01
    4.2891  7.914528E-01  1.412060E+01
    4.3359  8.770173E-01  1.457280E+01
    4.3828  8.794490E-01  1.503611E+01
    4.4297  1.006539E+00  1.557778E+01
    4.4766  1.104765E+00  1.618495E+01
    4.5234  1.268644E+00  1.689688E+01
    4.5703  1.380546E+00  1.768773E+01
    4.6172  1.512014E+00  1.857176E+01
    4.6641  1.633871E+00  1.954653E+01
    4.7109  1.732728E+00  2.060116E+01
    4.7578  1.800359E+00  2.171887E+01
    4.8047  1.863205E+00  2.289850E+01
    4.8516  1.878833E+00  2.411134E+01
    4.8984  1.852720E+00  2.533056E+01
    4.9453  1.820871E+00  2.655185E+01
    4.9922  1.738745E+00  2.774028E+01
    5.0391  1.678625E+00  2.890926E+01
    5.0859  1.543572E+00  3.000428E+01
    5.1328  1.441503E+00  3.104583E+01
    5.1797  1.305107E+00  3.200613E+01
    5.2266  1.183546E+00  3.289282E+01
    5.2734  1.032393E+00  3.368021E+01
    5.3203  9.006722E-01  3.437940E+01
    5.3672  7.739615E-01  3.499086E+01
    5.4141  6.772564E-01  3.553530E+01
    5.4609  5.770921E-01  3.600729E+01
    5.5078  4.814772E-01  3.640787E+01
    5.5547  3.969269E-01  3.674375E+01
    5.6016  3.480794E-01  3.704329E+01
    5.6484  2.904746E-01  3.729745E+01
    5.6953  2.591712E-01  3.752801E+01
    5.7422  2.474057E-01  3.775174E+01
    5.7891  2.255339E-01  3.795903E+01
    5.8359  2.286166E-01  3.817257E+01
    5.8828  2.512060E-01  3.841100E+01
    5.9297  2.773761E-01  3.867847E+01
    5.9766  3.237281E-01  3.899560E+01

g(r)  :Mg      O_S     

        r      g(r)         n(r)

    1.5234  0.000000E+00  0.000000E+00
    1.5703  0.000000E+00  0.000000E+00
    1.6172  3.711177E-02  2.662037E-03
    1.6641  1.462980E-01  1.377315E-02
    1.7109  5.189698E-01  5.543981E-02
    1.7578  1.108971E+00  1.494213E-01
    1.8047  1.813989E+00  3.114583E-01
    1.8516  2.727752E+00  5.679398E-01
    1.8984  3.221150E+00  8.863426E-01
    1.9453  3.439138E+00  1.243287E+00
    1.9922  3.618399E+00  1.637153E+00
    2.0391  3.514854E+00  2.037963E+00
    2.0859  3.276226E+00  2.428935E+00
    2.1328  3.058659E+00  2.810532E+00
    2.1797  2.605205E+00  3.150000E+00
    2.2266  2.363027E+00  3.471296E+00
    2.2734  2.041238E+00  3.760648E+00
    2.3203  1.899244E+00  4.041088E+00
    2.3672  1.568718E+00  4.282176E+00
    2.4141  1.380941E+00  4.502894E+00
    2.4609  1.260548E+00  4.712269E+00
    2.5078  1.072282E+00  4.897222E+00
    2.5547  9.007378E-01  5.058449E+00
    2.6016  7.974901E-01  5.206481E+00
    2.6484  6.828732E-01  5.337847E+00
    2.6953  5.919432E-01  5.455787E+00
    2.7422  4.719828E-01  5.553125E+00
    2.7891  3.732474E-01  5.632755E+00
    2.8359  3.384477E-01  5.707407E+00
    2.8828  2.869070E-01  5.772801E+00
    2.9297  2.482987E-01  5.831250E+00
    2.9766  2.005294E-01  5.879977E+00
    3.0234  1.708150E-01  5.922801E+00
    3.0703  1.598195E-01  5.964120E+00
    3.1172  1.563520E-01  6.005787E+00
    3.1641  1.745168E-01  6.053704E+00
    3.2109  1.931993E-01  6.108333E+00
    3.2578  2.278400E-01  6.174653E+00
    3.3047  2.979349E-01  6.263889E+00
    3.3516  3.704335E-01  6.378009E+00
    3.3984  4.710017E-01  6.527199E+00
    3.4453  5.645749E-01  6.710995E+00
    3.4922  6.910532E-01  6.942130E+00
    3.5391  8.383060E-01  7.230093E+00
    3.5859  9.399320E-01  7.561574E+00
    3.6328  1.084993E+00  7.954282E+00
    3.6797  1.162874E+00  8.386111E+00
    3.7266  1.276023E+00  8.872106E+00
    3.7734  1.324541E+00  9.389352E+00
    3.8203  1.328381E+00  9.921065E+00
    3.8672  1.323464E+00  1.046389E+01
    3.9141  1.223362E+00  1.097789E+01
    3.9609  1.163107E+00  1.147836E+01
    4.0078  1.037534E+00  1.193542E+01
    4.0547  9.489970E-01  1.236331E+01
    4.1016  8.200617E-01  1.274167E+01
    4.1484  7.187488E-01  1.308090E+01
    4.1953  6.620157E-01  1.340046E+01
    4.2422  6.148704E-01  1.370394E+01
    4.2891  6.299506E-01  1.402176E+01
    4.3359  6.653390E-01  1.436481E+01
    4.3828  7.509260E-01  1.476042E+01
    4.4297  8.346962E-01  1.520961E+01
    4.4766  1.008525E+00  1.576389E+01
    4.5234  1.201406E+00  1.643808E+01
    4.5703  1.370646E+00  1.722326E+01
    4.6172  1.545865E+00  1.812708E+01
    4.6641  1.742124E+00  1.916644E+01
    4.7109  1.860135E+00  2.029861E+01
    4.7578  1.967773E+00  2.152025E+01
    4.8047  2.045833E+00  2.281551E+01
    4.8516  2.066376E+00  2.414942E+01
    4.8984  2.045661E+00  2.549560E+01
    4.9453  2.012241E+00  2.684525E+01
    4.9922  1.890301E+00  2.813727E+01
    5.0391  1.765050E+00  2.936644E+01
    5.0859  1.613075E+00  3.051076E+01
    5.1328  1.486675E+00  3.158495E+01
    5.1797  1.315017E+00  3.255255E+01
    5.2266  1.177212E+00  3.343449E+01
    5.2734  1.019494E+00  3.421204E+01
    5.3203  8.803955E-01  3.489549E+01
    5.3672  7.382154E-01  3.547870E+01
    5.4141  6.342080E-01  3.598854E+01
    5.4609  5.245906E-01  3.641759E+01
    5.5078  4.192927E-01  3.676644E+01
    5.5547  3.325050E-01  3.704780E+01
    5.6016  2.710124E-01  3.728102E+01
    5.6484  2.309511E-01  3.748310E+01
    5.6953  1.834495E-01  3.764630E+01
    5.7422  1.624200E-01  3.779317E+01
    5.7891  1.560226E-01  3.793657E+01
    5.8359  1.551371E-01  3.808148E+01
    5.8828  1.715761E-01  3.824433E+01
    5.9297  2.018809E-01  3.843900E+01
    5.9766  2.346438E-01  3.866887E+01

g(r)  :O_      O_      

        r      g(r)         n(r)

    1.8984  0.000000E+00  0.000000E+00
    1.9453  0.000000E+00  0.000000E+00
    1.9922  4.253188E-03  4.629630E-04
    2.0391  4.059895E-03  9.259259E-04
    2.0859  5.819228E-03  1.620370E-03
    2.1328  1.855420E-02  3.935185E-03
    2.1797  2.309421E-02  6.944444E-03
    2.2266  3.745432E-02  1.203704E-02
    2.2734  6.205363E-02  2.083333E-02
    2.3203  1.113052E-01  3.726852E-02
    2.3672  1.641769E-01  6.250000E-02
    2.4141  2.389672E-01  1.006944E-01
    2.4609  3.539846E-01  1.594907E-01
    2.5078  4.468960E-01  2.365741E-01
    2.5547  6.673090E-01  3.560185E-01
    2.6016  8.130782E-01  5.069444E-01
    2.6484  9.999430E-01  6.993056E-01
    2.6953  1.241977E+00  9.467593E-01
    2.7422  1.490590E+00  1.254167E+00
    2.7891  1.744714E+00  1.626389E+00
    2.8359  2.091554E+00  2.087731E+00
    2.8828  2.211977E+00  2.591898E+00
    2.9297  2.448570E+00  3.168287E+00
    2.9766  2.534959E+00  3.784259E+00
    3.0234  2.721960E+00  4.466667E+00
    3.0703  2.668134E+00  5.156481E+00
    3.1172  2.571122E+00  5.841667E+00
    3.1641  2.453352E+00  6.515278E+00
    3.2109  2.397800E+00  7.193287E+00
    3.2578  2.177403E+00  7.827083E+00
    3.3047  1.973094E+00  8.418056E+00
    3.3516  1.777029E+00  8.965509E+00
    3.3984  1.595340E+00  9.470833E+00
    3.4453  1.405749E+00  9.928472E+00
    3.4922  1.159945E+00  1.031644E+01
    3.5391  9.939722E-01  1.065787E+01
    3.5859  8.349116E-01  1.095231E+01
    3.6328  7.367591E-01  1.121898E+01
    3.6797  6.651226E-01  1.146597E+01
    3.7266  5.348415E-01  1.166968E+01
    3.7734  5.157086E-01  1.187106E+01
    3.8203  4.898298E-01  1.206713E+01
    3.8672  4.475509E-01  1.225069E+01
    3.9141  4.600349E-01  1.244398E+01
    3.9609  4.508250E-01  1.263796E+01
    4.0078  4.487486E-01  1.283565E+01
    4.0547  4.707765E-01  1.304792E+01
    4.1016  5.057340E-01  1.328125E+01
    4.1484  4.825990E-01  1.350903E+01
    4.1953  5.217480E-01  1.376088E+01
    4.2422  5.252897E-01  1.402014E+01
    4.2891  5.712225E-01  1.430833E+01
    4.3359  5.692644E-01  1.460185E+01
    4.3828  5.800014E-01  1.490741E+01
    4.4297  5.708023E-01  1.521458E+01
    4.4766  5.458543E-01  1.551458E+01
    4.5234  5.597625E-01  1.582870E+01
    4.5703  5.657147E-01  1.615278E+01
    4.6172  5.808131E-01  1.649236E+01
    4.6641  6.017893E-01  1.685139E+01
    4.7109  6.469207E-01  1.724514E+01
    4.7578  6.853183E-01  1.767060E+01
    4.8047  7.268548E-01  1.813079E+01
    4.8516  7.824437E-01  1.863588E+01
    4.8984  8.913600E-01  1.922245E+01
    4.9453  9.408061E-01  1.985347E+01
    4.9922  1.048192E+00  2.056991E+01
    5.0391  1.184345E+00  2.139468E+01
    5.0859  1.211886E+00  2.225440E+01
    5.1328  1.326971E+00  2.321319E+01
    5.1797  1.388318E+00  2.423472E+01
    5.2266  1.501332E+00  2.535949E+01
    5.2734  1.556405E+00  2.654653E+01
    5.3203  1.562497E+00  2.775949E+01
    5.3672  1.602714E+00  2.902569E+01
    5.4141  1.603589E+00  3.031481E+01
    5.4609  1.576461E+00  3.160417E+01
    5.5078  1.507729E+00  3.285856E+01
    5.5547  1.464335E+00  3.409769E+01
    5.6016  1.382634E+00  3.528750E+01
    5.6484  1.309517E+00  3.643333E+01
    5.6953  1.231063E+00  3.752847E+01
    5.7422  1.181353E+00  3.859676E+01
    5.7891  1.119484E+00  3.962569E+01
    5.8359  1.070595E+00  4.062569E+01
    5.8828  1.031164E+00  4.160440E+01
    5.9297  9.429108E-01  4.251366E+01
    5.9766  9.064387E-01  4.340162E+01

g(r)  :O_      O_S     

        r      g(r)         n(r)

    2.0391  0.000000E+00  0.000000E+00
    2.0859  0.000000E+00  0.000000E+00
    2.1328  9.277099E-04  1.157407E-04
    2.1797  2.664717E-03  4.629630E-04
    2.2266  6.809876E-03  1.388889E-03
    2.2734  9.797941E-03  2.777778E-03
    2.3203  2.351519E-02  6.250000E-03
    2.3672  4.819872E-02  1.365741E-02
    2.4141  6.010387E-02  2.326389E-02
    2.4609  1.595718E-01  4.976852E-02
    2.5078  2.496176E-01  9.282407E-02
    2.5547  3.776245E-01  1.604167E-01
    2.6016  5.555619E-01  2.635417E-01
    2.6484  8.350908E-01  4.241898E-01
    2.6953  1.029365E+00  6.292824E-01
    2.7422  1.373296E+00  9.125000E-01
    2.7891  1.774010E+00  1.290972E+00
    2.8359  2.127760E+00  1.760301E+00
    2.8828  2.392753E+00  2.305671E+00
    2.9297  2.714077E+00  2.944560E+00
    2.9766  2.969360E+00  3.666088E+00
    3.0234  3.048356E+00  4.430324E+00
    3.0703  3.074622E+00  5.225231E+00
    3.1172  2.926823E+00  6.005208E+00
    3.1641  2.801122E+00  6.774306E+00
    3.2109  2.568487E+00  7.500579E+00
    3.2578  2.356335E+00  8.186458E+00
    3.3047  2.108343E+00  8.817940E+00
    3.3516  1.848410E+00  9.387384E+00
    3.3984  1.544915E+00  9.876736E+00
    3.4453  1.254650E+00  1.028519E+01
    3.4922  1.099041E+00  1.065278E+01
    3.5391  8.760433E-01  1.095370E+01
    3.5859  7.233275E-01  1.120880E+01
    3.6328  5.957388E-01  1.142442E+01
    3.6797  5.251788E-01  1.161944E+01
    3.7266  4.433715E-01  1.178831E+01
    3.7734  4.013043E-01  1.194502E+01
    3.8203  3.845771E-01  1.209896E+01
    3.8672  3.750285E-01  1.225278E+01
    3.9141  3.977787E-01  1.241991E+01
    3.9609  4.094007E-01  1.259606E+01
    4.0078  4.379766E-01  1.278900E+01
    4.0547  4.481874E-01  1.299109E+01
    4.1016  4.899298E-01  1.321713E+01
    4.1484  5.041786E-01  1.345509E+01
    4.1953  5.430878E-01  1.371725E+01
    4.2422  5.653900E-01  1.399630E+01
    4.2891  5.822340E-01  1.429005E+01
    4.3359  5.804880E-01  1.458935E+01
    4.3828  5.953802E-01  1.490301E+01
    4.4297  5.630597E-01  1.520602E+01
    4.4766  5.460649E-01  1.550613E+01
    4.5234  5.319187E-01  1.580463E+01
    4.5703  5.544004E-01  1.612222E+01
    4.6172  5.465661E-01  1.644178E+01
    4.6641  5.488271E-01  1.676921E+01
    4.7109  5.681949E-01  1.711505E+01
    4.7578  6.010518E-01  1.748819E+01
    4.8047  6.480634E-01  1.789850E+01
    4.8516  7.238142E-01  1.836574E+01
    4.8984  7.933949E-01  1.888785E+01
    4.9453  8.968029E-01  1.948935E+01
    4.9922  9.855372E-01  2.016296E+01
    5.0391  1.136479E+00  2.095440E+01
    5.0859  1.243211E+00  2.183634E+01
    5.1328  1.365095E+00  2.282269E+01
    5.1797  1.467911E+00  2.390278E+01
    5.2266  1.585992E+00  2.509097E+01
    5.2734  1.669463E+00  2.636424E+01
    5.3203  1.708310E+00  2.769039E+01
    5.3672  1.738520E+00  2.906389E+01
    5.4141  1.708978E+00  3.043773E+01
    5.4609  1.706370E+00  3.183333E+01
    5.5078  1.614987E+00  3.317697E+01
    5.5547  1.507420E+00  3.445255E+01
    5.6016  1.432667E+00  3.568542E+01
    5.6484  1.322876E+00  3.684294E+01
    5.6953  1.222606E+00  3.793056E+01
    5.7422  1.146667E+00  3.896748E+01
    5.7891  1.083595E+00  3.996343E+01
    5.8359  1.002691E+00  4.090000E+01
    5.8828  9.648260E-01  4.181574E+01
    5.9297  8.933408E-01  4.267720E+01
    5.9766  8.761926E-01  4.353553E+01

g(r)  :O_S     O_S     

        r      g(r)         n(r)

    2.2266  0.000000E+00  0.000000E+00
    2.2734  0.000000E+00  0.000000E+00
    2.3203  1.567680E-03  2.314815E-04
    2.3672  0.000000E+00  2.314815E-04
    2.4141  2.896572E-03  6.944444E-04
    2.4609  9.755482E-03  2.314815E-03
    2.5078  3.891887E-02  9.027778E-03
    2.5547  8.535347E-02  2.430556E-02
    2.6016  2.169871E-01  6.458333E-02
    2.6484  3.934794E-01  1.402778E-01
    2.6953  7.203234E-01  2.837963E-01
    2.7422  1.053964E+00  5.011574E-01
    2.7891  1.617767E+00  8.462963E-01
    2.8359  2.098900E+00  1.309259E+00
    2.8828  2.760401E+00  1.938426E+00
    2.9297  3.042520E+00  2.654630E+00
    2.9766  3.451393E+00  3.493287E+00
    3.0234  3.623125E+00  4.401620E+00
    3.0703  3.704051E+00  5.359259E+00
    3.1172  3.368517E+00  6.256944E+00
    3.1641  3.152263E+00  7.122454E+00
    3.2109  2.899627E+00  7.942361E+00
    3.2578  2.480394E+00  8.664352E+00
    3.3047  2.149304E+00  9.308102E+00
    3.3516  1.727437E+00  9.840278E+00
    3.3984  1.411178E+00  1.028727E+01
    3.4453  1.140527E+00  1.065856E+01
    3.4922  9.509334E-01  1.097662E+01
    3.5391  7.318331E-01  1.122801E+01
    3.5859  5.730172E-01  1.143009E+01
    3.6328  4.758236E-01  1.160231E+01
    3.6797  3.746379E-01  1.174144E+01
    3.7266  3.500781E-01  1.187477E+01
    3.7734  2.774156E-01  1.198310E+01
    3.8203  2.735413E-01  1.209259E+01
    3.8672  2.940404E-01  1.221319E+01
    3.9141  3.316659E-01  1.235255E+01
    3.9609  3.717423E-01  1.251250E+01
    4.0078  4.240517E-01  1.269931E+01
    4.0547  4.887450E-01  1.291968E+01
    4.1016  4.831566E-01  1.314259E+01
    4.1484  5.237964E-01  1.338981E+01
    4.1953  5.663459E-01  1.366319E+01
    4.2422  5.871989E-01  1.395301E+01
    4.2891  6.198567E-01  1.426574E+01
    4.3359  6.388511E-01  1.459514E+01
    4.3828  6.217439E-01  1.492269E+01
    4.4297  5.841368E-01  1.523704E+01
    4.4766  5.496450E-01  1.553912E+01
    4.5234  5.445000E-01  1.584468E+01
    4.5703  5.281351E-01  1.614722E+01
    4.6172  5.174660E-01  1.644977E+01
    4.6641  4.877170E-01  1.674074E+01
    4.7109  4.902297E-01  1.703912E+01
    4.7578  5.115652E-01  1.735671E+01
    4.8047  5.261288E-01  1.768981E+01
    4.8516  6.020729E-01  1.807847E+01
    4.8984  6.774899E-01  1.852431E+01
    4.9453  7.851555E-01  1.905093E+01
    4.9922  8.984984E-01  1.966505E+01
    5.0391  1.074985E+00  2.041366E+01
    5.0859  1.201118E+00  2.126574E+01
    5.1328  1.410907E+00  2.228519E+01
    5.1797  1.548762E+00  2.342477E+01
    5.2266  1.725960E+00  2.471782E+01
    5.2734  1.865683E+00  2.614074E+01
    5.3203  1.899150E+00  2.761505E+01
    5.3672  1.920034E+00  2.913194E+01
    5.4141  1.934154E+00  3.068681E+01
    5.4609  1.809109E+00  3.216644E+01
    5.5078  1.731982E+00  3.360741E+01
    5.5547  1.610686E+00  3.497037E+01
    5.6016  1.480817E+00  3.624468E+01
    5.6484  1.307136E+00  3.738843E+01
    5.6953  1.184225E+00  3.844190E+01
    5.7422  1.061810E+00  3.940208E+01
    5.7891  9.857504E-01  4.030810E+01
    5.8359  9.107491E-01  4.115880E+01
    5.8828  8.682458E-01  4.198287E+01
    5.9297  8.459312E-01  4.279861E+01
    5.9766  7.897076E-01  4.357222E+01

 time elapsed since job start =        1024.986 seconds

