
                    DL_POLY Classic 1.2

                              Running on    8 nodes


 ************************************************************************************************************************
 ************************************************************************************************************************
 ************************************************************************************************************************
 ***************     DL_POLY TEST CASE 4: Adiabatic Dynamical Shell Model of Water                        ***************
 ************************************************************************************************************************
 ************************************************************************************************************************
 ************************************************************************************************************************


 SIMULATION CONTROL PARAMETERS


 leapfrog verlet integration selected

 simulation temperature           2.0000E+02

 simulation pressure (katm)       0.0000E+00

 Berendsen thermostat
 thermostat relaxation time       5.0000E-01

 selected number of timesteps          500

 equilibration period                  100

 multiple timestep interval              4

 temperature scaling on
 temperature scaling interval           10

 equilibration included in overall averages

 data printing interval                  5

 data stacking interval                100

 statistics file interval                5


 radial distribution functions on 
 g(r) collection interval                1
 g(r) bin width                   5.0000E-02

 simulation timestep              5.0000E-04

 primary neighbour cut off        7.6000E+00

 real space cut off               9.6000E+00

 border width of Verlet shell     1.2000E+00

 real space cut off (vdw)         8.0000E+00


 Electrostatics : reaction field


 relative dielectric constant     7.8000E+01

 force capping :                  1.0000E+04 kT/A

 tolerance for SHAKE              1.0000E-05

 tolerance for Quaternions        1.0000E-05


 Z density profile requested
 zdensity collection interval           10
 zdensity bin width               1.0000E-01
 zdensity range                   2.9000E+01

 g(r) printing option on      

 user allocated job time (m)     15.0000

 job closure time        (s)      20.000


SYSTEM SPECIFICATION

 energy units=kjoule/mol 

 neutral group implementation in use


 number of molecular types               1

 molecular species type                  1


 name of species:             spc water                               

 number of molecules                   256

 number of atoms/sites                   4


 atomic characteristics:

                      site     name          mass        charge    repeat    freeze   chg grp
                         1     OW          15.00000    -0.32000         1         0         1
                         2     HW           1.00000     0.41000         2         0         1
                         4     O_shell      1.00000    -0.50000         1         0         1

 number of core-shell units              1


 core-shell details:

                          index     index      parameter
                              1         4       100.0000         0.0000

 number of rigid units                   1

 rigid body details:

                           unit   indices

                              1         1         2         3


 number of specified pair potentials         5


                atom 1  atom 2      key                              parameters


                O_shell O_shell   lj       3.68540E-01  3.16500E+00
                O_shell OW        lj       2.10590E-01  3.16500E+00
                OW      OW        lj       5.26500E-02  3.16500E+00
                OW      HW        lj       0.00000E+00  3.16500E+00
                O_shell HW        lj       0.00000E+00  3.16500E+00

  *** warning - undefined atom-atom interactions set to zero ***


adiabatic shell model in operation

 configuration file name: 

          DL_POLY TEST CASE 4: Dynamical Shell model water structure                      


 selected image convention               6


 simulation cell vectors


                        19.246204    0.000000    0.000000
                         0.000000   19.246204    0.000000
                         0.000000    0.000000   29.246204


 system volume            10833.2725653    


             summary of rigid body set up

 group of type          1
             total mass           17.0000000000
             rot. inertia          1.9215469014        1.3331485503        0.5883983511

             site        a coord        b coord        c coord
                1    0.00000E+00   -6.79330E-02   -0.00000E+00
                2    0.00000E+00    5.09497E-01    8.16440E-01
                3    0.00000E+00    5.09497E-01   -8.16440E-01


 total degrees of freedom                      1530.
 rotational degrees of freedom                  765.
 shell pseudo degrees of freedom                768.


 sample of starting configuration

      i       x(i)        y(i)        z(i)       vx(i)       vy(i)       vz(i)       fx(i)       fy(i)       fz(i)


      1  6.5979E+00 -5.1578E+00 -7.7738E+00  6.0370E+00 -2.7103E+00 -3.8483E+00 -2.4285E+02  5.9301E+02  8.9965E+01
     53 -8.3911E+00  8.7159E+00 -8.4160E+00 -1.3922E-01  4.9155E+00  2.5645E+00  9.5366E+02  9.3302E+02 -2.7706E+02
    105 -5.8034E+00  1.6694E+00  8.9756E+00 -5.7234E+00 -2.3472E+00 -6.5878E-01  4.9739E+02 -4.3555E+02  1.5332E+02
    157  1.3778E+00 -4.2204E+00  2.5719E+00 -1.0532E+00 -1.8711E+00  1.1087E+00  3.2027E+03 -1.6402E+03  4.2647E+01
    209  7.5615E+00  1.1184E+00  6.5238E+00  2.3490E+00  2.8447E+00  4.8359E+00 -3.4639E+02  2.3576E+03  1.5813E+03
    261  2.3999E+00  1.8743E+00 -4.4751E+00 -1.3304E+00  1.2158E+00  2.1901E-01  1.0958E+03 -1.3376E+03  1.0932E+02
    313  1.2214E+00 -5.7388E+00  3.8764E-01 -2.3269E+00 -1.9904E+00 -2.5632E+00  4.7207E+02 -1.3204E+03 -1.7011E+03
    365  9.3290E+00  3.3720E+00  2.8439E+00  1.6136E+00 -1.2168E+00  1.5402E+00  2.3448E+02  3.3218E+02 -1.3902E+03
    417  5.4530E+00 -2.5303E-01  2.6471E+00 -3.7031E+00 -3.5224E+00 -2.0889E+00  5.8084E+03 -3.2145E+03  3.9733E+02
    469 -4.1637E+00  4.7988E+00  4.6878E+00 -3.5665E+00 -2.8055E+00 -6.8986E-01 -7.1556E+02 -1.9296E+02 -1.5436E+03
    521  1.8931E-01 -7.0628E-02  6.0388E+00 -2.6627E+00  1.5342E+00 -5.2760E+00  1.8581E+02 -1.8205E+03 -9.7168E+02
    573 -1.2508E+00  4.9497E-02 -6.4848E+00 -3.4630E+00 -1.8834E+00 -1.3952E-01 -2.8964E+03  2.4806E+03  2.6530E+02
    625 -1.6867E+00 -7.7057E+00  6.7952E+00 -7.0752E+00  3.1723E+00  2.1183E+00 -2.1176E+03 -7.6130E+02  1.6023E+03
    677 -1.0167E+00  2.1299E+00  6.9538E+00 -5.5519E+00 -8.3348E-01 -3.4401E+00 -3.2804E+03  8.5945E+02  3.8082E+02
    729  8.6858E+00 -6.7426E+00  8.7529E-01  2.7489E+00  3.0209E+00 -9.9724E-01  1.5673E+03  1.5395E+03  3.6810E+03
    781  2.8836E+00 -6.2808E+00 -7.9564E+00 -4.4771E+00  2.6861E+00 -3.6208E+00 -8.4722E+02 -8.6393E+02  1.2415E+02
    833  3.1602E+00  9.4798E+00  4.9543E+00 -1.4754E+00 -8.7445E-01  2.7606E+00  2.1783E+03 -2.9230E+03 -1.1453E+02
    885  8.3154E-01  2.2404E-01  3.2293E+00  4.1335E+00 -3.4545E-01 -3.2601E-01 -7.1881E+02  9.7762E+02  9.2362E+02
    937 -6.3800E+00  1.8268E+00 -5.4307E+00 -9.5994E-01 -2.1917E+00 -2.1325E+00  5.4111E+02  4.7565E+01  2.0928E+03
    989  2.3032E+00 -7.3858E+00  5.6418E+00  2.4898E+00  4.6943E-01 -7.9855E-01 -1.0003E+03  2.4239E+03  1.6052E+03


long range correction for: vdw energy     0.000000E+00
                         : vdw pressure  -0.000000E+00

 time elapsed since job start =           0.420 seconds

 ------------------------------------------------------------------------------------------------------------------------

     step     eng_tot    temp_tot     eng_cfg     eng_vdw     eng_cou     eng_bnd     eng_ang     eng_dih     eng_tet
 time          eng_pv    temp_rot     vir_cfg     vir_vdw     vir_cou     vir_bnd     vir_ang     vir_con     vir_tet
 cpu time      volume    temp_shl     eng_shl     vir_shl       alpha        beta       gamma     vir_pmf       press

 ------------------------------------------------------------------------------------------------------------------------
        1 -7.7597E+03  2.0135E+02 -9.0404E+03  3.1030E+03 -1.2146E+04  0.0000E+00  0.0000E+00  0.0000E+00  0.0000E+00
   0.500f  3.9874E+02  1.9570E+02 -2.3159E+04 -6.7140E+04  1.2103E+04  0.0000E+00  0.0000E+00  0.0000E+00  0.0000E+00
   0.438s  1.0833E+04  8.5257E+00  2.6406E+00  5.2812E+00  9.0000E+01  9.0000E+01  9.0000E+01  0.0000E+00  1.2342E+01

  rolling -7.7597E+03  2.0135E+02 -9.0404E+03  3.1030E+03 -1.2146E+04  0.0000E+00  0.0000E+00  0.0000E+00  0.0000E+00
 averages  3.9874E+02  1.9570E+02 -2.3159E+04 -6.7140E+04  1.2103E+04  0.0000E+00  0.0000E+00  0.0000E+00  0.0000E+00
           1.0833E+04  8.5257E+00  2.6406E+00  5.2812E+00  9.0000E+01  9.0000E+01  9.0000E+01  0.0000E+00  1.2342E+01
 ------------------------------------------------------------------------------------------------------------------------
        5 -7.7268E+03  2.9016E+02 -9.5724E+03  2.9608E+03 -1.2547E+04  0.0000E+00  0.0000E+00  0.0000E+00  0.0000E+00
   2.500f -2.1489E+02  2.0883E+02 -2.0173E+04 -6.5276E+04  1.2501E+04  0.0000E+00  0.0000E+00  0.0000E+00  0.0000E+00
   0.487s  1.0833E+04  1.9967E+02  1.3602E+01  2.7204E+01  9.0000E+01  9.0000E+01  9.0000E+01  0.0000E+00  1.1364E+01

  rolling -7.7425E+03  2.3764E+02 -9.2540E+03  3.0457E+03 -1.2306E+04  0.0000E+00  0.0000E+00  0.0000E+00  0.0000E+00
 averages  1.5681E+02  2.0164E+02 -2.1957E+04 -6.6389E+04  1.2261E+04  0.0000E+00  0.0000E+00  0.0000E+00  0.0000E+00
           1.0833E+04  8.9608E+01  6.3100E+00  1.2620E+01  9.0000E+01  9.0000E+01  9.0000E+01  0.0000E+00  1.1950E+01
 ------------------------------------------------------------------------------------------------------------------------
       10 -7.7034E+03  5.3255E+02 -1.1091E+04  2.7038E+03 -1.3941E+04  0.0000E+00  0.0000E+00  0.0000E+00  0.0000E+00
   5.000f -1.6925E+03  2.3599E+02 -1.2759E+04 -6.1821E+04  1.3887E+04  0.0000E+00  0.0000E+00  0.0000E+00  0.0000E+00
   0.557s  1.0833E+04  6.6451E+02  1.4608E+02  2.9216E+02  9.0000E+01  9.0000E+01  9.0000E+01  0.0000E+00  9.0932E+00

  rolling -7.7266E+03  3.3310E+02 -9.8453E+03  2.9193E+03 -1.2805E+04  0.0000E+00  0.0000E+00  0.0000E+00  0.0000E+00
 averages -4.7356E+02  2.1305E+02 -1.8877E+04 -6.4713E+04  1.2758E+04  0.0000E+00  0.0000E+00  0.0000E+00  0.0000E+00
           1.0833E+04  2.7844E+02  4.0549E+01  8.1098E+01  9.0000E+01  9.0000E+01  9.0000E+01  0.0000E+00  1.0972E+01
 ------------------------------------------------------------------------------------------------------------------------
       15 -1.0138E+04  2.5875E+02 -1.1783E+04  2.7012E+03 -1.4742E+04  0.0000E+00  0.0000E+00  0.0000E+00  0.0000E+00
   7.500f -6.1456E+03  2.4524E+02 -1.0244E+04 -6.1711E+04  1.4690E+04  0.0000E+00  0.0000E+00  0.0000E+00  0.0000E+00
   0.617s  1.0833E+04  1.0335E+02  2.5701E+02  5.1403E+02  9.0000E+01  9.0000E+01  9.0000E+01  0.0000E+00  6.0389E+00

  rolling -8.5328E+03  2.9754E+02 -1.0425E+04  2.8435E+03 -1.3371E+04  0.0000E+00  0.0000E+00  0.0000E+00  0.0000E+00
 averages -2.3337E+03  2.1922E+02 -1.6207E+04 -6.3679E+04  1.3322E+04  0.0000E+00  0.0000E+00  0.0000E+00  0.0000E+00
           1.0833E+04  2.0098E+02  1.0265E+02  2.0529E+02  9.0000E+01  9.0000E+01  9.0000E+01  0.0000E+00  9.3779E+00
 ------------------------------------------------------------------------------------------------------------------------
       20 -1.0124E+04  4.0605E+02 -1.2707E+04  2.8390E+03 -1.6025E+04  0.0000E+00  0.0000E+00  0.0000E+00  0.0000E+00
  10.000f -6.2941E+03  2.7695E+02 -8.0855E+03 -6.3385E+04  1.5976E+04  0.0000E+00  0.0000E+00  0.0000E+00  0.0000E+00
   0.687s  1.0833E+04  3.7472E+02  4.7992E+02  9.5984E+02  9.0000E+01  9.0000E+01  9.0000E+01  0.0000E+00  5.7936E+00

  rolling -8.9316E+03  3.0862E+02 -1.0895E+04  2.8246E+03 -1.3889E+04  0.0000E+00  0.0000E+00  0.0000E+00  0.0000E+00
 averages -3.3140E+03  2.3061E+02 -1.4394E+04 -6.3387E+04  1.3840E+04  0.0000E+00  0.0000E+00  0.0000E+00  0.0000E+00
           1.0833E+04  2.1475E+02  1.7012E+02  3.4024E+02  9.0000E+01  9.0000E+01  9.0000E+01  0.0000E+00  8.4982E+00
 ------------------------------------------------------------------------------------------------------------------------
       25 -1.1638E+04  2.4084E+02 -1.3170E+04  2.9390E+03 -1.6730E+04  0.0000E+00  0.0000E+00  0.0000E+00  0.0000E+00
  12.500f -8.7826E+03  2.6074E+02 -7.1607E+03 -6.4618E+04  1.6686E+04  0.0000E+00  0.0000E+00  0.0000E+00  0.0000E+00
   0.749s  1.0833E+04  6.8998E+01  6.2056E+02  1.2411E+03  9.0000E+01  9.0000E+01  9.0000E+01  0.0000E+00  4.3195E+00

  rolling -9.4739E+03  2.9064E+02 -1.1323E+04  2.8420E+03 -1.4417E+04  0.0000E+00  0.0000E+00  0.0000E+00  0.0000E+00
 averages -4.4041E+03  2.3473E+02 -1.3005E+04 -6.3566E+04  1.4368E+04  0.0000E+00  0.0000E+00  0.0000E+00  0.0000E+00
           1.0833E+04  1.7795E+02  2.5236E+02  5.0471E+02  9.0000E+01  9.0000E+01  9.0000E+01  0.0000E+00  7.6694E+00
 ------------------------------------------------------------------------------------------------------------------------
       30 -1.1627E+04  3.3981E+02 -1.3788E+04  3.1620E+03 -1.7830E+04  0.0000E+00  0.0000E+00  0.0000E+00  0.0000E+00
  15.000f -8.5778E+03  2.7963E+02 -6.6033E+03 -6.7407E+04  1.7790E+04  0.0000E+00  0.0000E+00  0.0000E+00  0.0000E+00
   0.819s  1.0833E+04  2.5104E+02  8.8013E+02  1.7603E+03  9.0000E+01  9.0000E+01  9.0000E+01  0.0000E+00  4.6127E+00

  rolling -9.8335E+03  2.9165E+02 -1.1689E+04  2.8774E+03 -1.4903E+04  0.0000E+00  0.0000E+00  0.0000E+00  0.0000E+00
 averages -5.1188E+03  2.4103E+02 -1.1967E+04 -6.3982E+04  1.4855E+04  0.0000E+00  0.0000E+00  0.0000E+00  0.0000E+00
           1.0833E+04  1.7686E+02  3.3665E+02  6.7330E+02  9.0000E+01  9.0000E+01  9.0000E+01  0.0000E+00  7.1322E+00
 ------------------------------------------------------------------------------------------------------------------------
       35 -1.2652E+04  2.2910E+02 -1.4110E+04  3.2826E+03 -1.8422E+04  0.0000E+00  0.0000E+00  0.0000E+00  0.0000E+00
  17.500f -1.0144E+04  2.6410E+02 -6.2913E+03 -6.8913E+04  1.8384E+04  0.0000E+00  0.0000E+00  0.0000E+00  0.0000E+00
   0.879s  1.0833E+04  4.6715E+01  1.0297E+03  2.0594E+03  9.0000E+01  9.0000E+01  9.0000E+01  0.0000E+00  3.7950E+00

  rolling -1.0237E+04  2.8046E+02 -1.2021E+04  2.9311E+03 -1.5382E+04  0.0000E+00  0.0000E+00  0.0000E+00  0.0000E+00
 averages -5.8380E+03  2.4343E+02 -1.1177E+04 -6.4634E+04  1.5335E+04  0.0000E+00  0.0000E+00  0.0000E+00  0.0000E+00
           1.0833E+04  1.5456E+02  4.2977E+02  8.5954E+02  9.0000E+01  9.0000E+01  9.0000E+01  0.0000E+00  6.6544E+00
 ------------------------------------------------------------------------------------------------------------------------
 ------------------------------------------------------------------------------------------------------------------------

     step     eng_tot    temp_tot     eng_cfg     eng_vdw     eng_cou     eng_bnd     eng_ang     eng_dih     eng_tet
 time          eng_pv    temp_rot     vir_cfg     vir_vdw     vir_cou     vir_bnd     vir_ang     vir_con     vir_tet
 cpu time      volume    temp_shl     eng_shl     vir_shl       alpha        beta       gamma     vir_pmf       press

 ------------------------------------------------------------------------------------------------------------------------
       40 -1.2644E+04  3.0003E+02 -1.4553E+04  3.5118E+03 -1.9354E+04  0.0000E+00  0.0000E+00  0.0000E+00  0.0000E+00
  20.000f -9.8632E+03  2.7898E+02 -6.3010E+03 -7.1793E+04  1.9313E+04  0.0000E+00  0.0000E+00  0.0000E+00  0.0000E+00
   0.952s  1.0833E+04  1.7065E+02  1.2897E+03  2.5793E+03  9.0000E+01  9.0000E+01  9.0000E+01  0.0000E+00  4.2071E+00

  rolling -1.0538E+04  2.7904E+02 -1.2313E+04  2.9901E+03 -1.5825E+04  0.0000E+00  0.0000E+00  0.0000E+00  0.0000E+00
 averages -6.3589E+03  2.4714E+02 -1.0560E+04 -6.5358E+04  1.5780E+04  0.0000E+00  0.0000E+00  0.0000E+00  0.0000E+00
           1.0833E+04  1.4979E+02  5.2215E+02  1.0443E+03  9.0000E+01  9.0000E+01  9.0000E+01  0.0000E+00  6.3221E+00
 ------------------------------------------------------------------------------------------------------------------------
       45 -1.3377E+04  2.2379E+02 -1.4800E+04  3.6229E+03 -1.9856E+04  0.0000E+00  0.0000E+00  0.0000E+00  0.0000E+00
  22.500f -1.0939E+04  2.6445E+02 -6.1478E+03 -7.3184E+04  1.9808E+04  0.0000E+00  0.0000E+00  0.0000E+00  0.0000E+00
   1.014s  1.0833E+04  3.2852E+01  1.4332E+03  2.8665E+03  9.0000E+01  9.0000E+01  9.0000E+01  0.0000E+00  3.6874E+00

  rolling -1.0854E+04  2.7151E+02 -1.2581E+04  3.0576E+03 -1.6257E+04  0.0000E+00  0.0000E+00  0.0000E+00  0.0000E+00
 averages -6.8685E+03  2.4850E+02 -1.0083E+04 -6.6192E+04  1.6212E+04  0.0000E+00  0.0000E+00  0.0000E+00  0.0000E+00
           1.0833E+04  1.3477E+02  6.1901E+02  1.2380E+03  9.0000E+01  9.0000E+01  9.0000E+01  0.0000E+00  6.0288E+00
 ------------------------------------------------------------------------------------------------------------------------
       50 -1.3372E+04  2.7604E+02 -1.5128E+04  3.8251E+03 -2.0629E+04  0.0000E+00  0.0000E+00  0.0000E+00  0.0000E+00
  25.000f -1.0679E+04  2.7299E+02 -6.3044E+03 -7.5727E+04  2.0567E+04  0.0000E+00  0.0000E+00  0.0000E+00  0.0000E+00
   1.096s  1.0833E+04  1.2150E+02  1.6761E+03  3.3523E+03  9.0000E+01  9.0000E+01  9.0000E+01  0.0000E+00  4.0742E+00

  rolling -1.1106E+04  2.6970E+02 -1.2821E+04  3.1248E+03 -1.6660E+04  0.0000E+00  0.0000E+00  0.0000E+00  0.0000E+00
 averages -7.2626E+03  2.5066E+02 -9.6929E+03 -6.7026E+04  1.6613E+04  0.0000E+00  0.0000E+00  0.0000E+00  0.0000E+00
           1.0833E+04  1.2955E+02  7.1349E+02  1.4270E+03  9.0000E+01  9.0000E+01  9.0000E+01  0.0000E+00  5.8138E+00
 ------------------------------------------------------------------------------------------------------------------------
       55 -1.3924E+04  2.1681E+02 -1.5303E+04  3.9154E+03 -2.1027E+04  0.0000E+00  0.0000E+00  0.0000E+00  0.0000E+00
  27.500f -1.1463E+04  2.5051E+02 -6.2187E+03 -7.6856E+04  2.0951E+04  0.0000E+00  0.0000E+00  0.0000E+00  0.0000E+00
   1.157s  1.0833E+04  2.4811E+01  1.8082E+03  3.6164E+03  9.0000E+01  9.0000E+01  9.0000E+01  0.0000E+00  3.7231E+00

  rolling -1.1362E+04  2.6409E+02 -1.3042E+04  3.1949E+03 -1.7047E+04  0.0000E+00  0.0000E+00  0.0000E+00  0.0000E+00
 averages -7.6453E+03  2.5058E+02 -9.3852E+03 -6.7898E+04  1.6998E+04  0.0000E+00  0.0000E+00  0.0000E+00  0.0000E+00
           1.0833E+04  1.1877E+02  8.0972E+02  1.6194E+03  9.0000E+01  9.0000E+01  9.0000E+01  0.0000E+00  5.6229E+00
 ------------------------------------------------------------------------------------------------------------------------
       60 -1.3922E+04  2.5536E+02 -1.5546E+04  4.0782E+03 -2.1653E+04  0.0000E+00  0.0000E+00  0.0000E+00  0.0000E+00
  30.000f -1.1258E+04  2.4936E+02 -6.3274E+03 -7.8903E+04  2.1555E+04  0.0000E+00  0.0000E+00  0.0000E+00  0.0000E+00
   1.226s  1.0833E+04  9.3021E+01  2.0292E+03  4.0584E+03  9.0000E+01  9.0000E+01  9.0000E+01  0.0000E+00  4.0289E+00

  rolling -1.1576E+04  2.6196E+02 -1.3242E+04  3.2621E+03 -1.7407E+04  0.0000E+00  0.0000E+00  0.0000E+00  0.0000E+00
 averages -7.9547E+03  2.5053E+02 -9.1237E+03 -6.8734E+04  1.7355E+04  0.0000E+00  0.0000E+00  0.0000E+00  0.0000E+00
           1.0833E+04  1.1412E+02  9.0285E+02  1.8057E+03  9.0000E+01  9.0000E+01  9.0000E+01  0.0000E+00  5.4775E+00
 ------------------------------------------------------------------------------------------------------------------------
       65 -1.4330E+04  2.1423E+02 -1.5692E+04  4.1457E+03 -2.1987E+04  0.0000E+00  0.0000E+00  0.0000E+00  0.0000E+00
  32.500f -1.1867E+04  2.3365E+02 -6.1493E+03 -7.9745E+04  2.1867E+04  0.0000E+00  0.0000E+00  0.0000E+00  0.0000E+00
   1.289s  1.0833E+04  1.9919E+01  2.1485E+03  4.2970E+03  9.0000E+01  9.0000E+01  9.0000E+01  0.0000E+00  3.7257E+00

  rolling -1.1788E+04  2.5770E+02 -1.3427E+04  3.3291E+03 -1.7752E+04  0.0000E+00  0.0000E+00  0.0000E+00  0.0000E+00
 averages -8.2551E+03  2.4923E+02 -8.9041E+03 -6.9569E+04  1.7695E+04  0.0000E+00  0.0000E+00  0.0000E+00  0.0000E+00
           1.0833E+04  1.0602E+02  9.9615E+02  1.9923E+03  9.0000E+01  9.0000E+01  9.0000E+01  0.0000E+00  5.3437E+00
 ------------------------------------------------------------------------------------------------------------------------
       70 -1.4327E+04  2.4945E+02 -1.5914E+04  4.2749E+03 -2.2536E+04  0.0000E+00  0.0000E+00  0.0000E+00  0.0000E+00
  35.000f -1.1757E+04  2.3697E+02 -6.0453E+03 -8.1370E+04  2.2387E+04  0.0000E+00  0.0000E+00  0.0000E+00  0.0000E+00
   1.359s  1.0833E+04  7.5069E+01  2.3473E+03  4.6947E+03  9.0000E+01  9.0000E+01  9.0000E+01  0.0000E+00  3.8885E+00

  rolling -1.1969E+04  2.5600E+02 -1.3597E+04  3.3922E+03 -1.8076E+04  0.0000E+00  0.0000E+00  0.0000E+00  0.0000E+00
 averages -8.5092E+03  2.4824E+02 -8.7014E+03 -7.0356E+04  1.8013E+04  0.0000E+00  0.0000E+00  0.0000E+00  0.0000E+00
           1.0833E+04  1.0207E+02  1.0861E+03  2.1722E+03  9.0000E+01  9.0000E+01  9.0000E+01  0.0000E+00  5.2337E+00
 ------------------------------------------------------------------------------------------------------------------------
       75 -1.4685E+04  2.1650E+02 -1.6062E+04  4.3298E+03 -2.2846E+04  0.0000E+00  0.0000E+00  0.0000E+00  0.0000E+00
  37.500f -1.2341E+04  2.2714E+02 -5.7230E+03 -8.2055E+04  2.2692E+04  0.0000E+00  0.0000E+00  0.0000E+00  0.0000E+00
   1.423s  1.0833E+04  1.6295E+01  2.4544E+03  4.9088E+03  9.0000E+01  9.0000E+01  9.0000E+01  0.0000E+00  3.5461E+00

  rolling -1.2150E+04  2.5281E+02 -1.3758E+04  3.4540E+03 -1.8387E+04  0.0000E+00  0.0000E+00  0.0000E+00  0.0000E+00
 averages -8.7632E+03  2.4662E+02 -8.5135E+03 -7.1127E+04  1.8319E+04  0.0000E+00  0.0000E+00  0.0000E+00  0.0000E+00
           1.0833E+04  9.5749E+01  1.1754E+03  2.3507E+03  9.0000E+01  9.0000E+01  9.0000E+01  0.0000E+00  5.1237E+00
 ------------------------------------------------------------------------------------------------------------------------
 ------------------------------------------------------------------------------------------------------------------------

     step     eng_tot    temp_tot     eng_cfg     eng_vdw     eng_cou     eng_bnd     eng_ang     eng_dih     eng_tet
 time          eng_pv    temp_rot     vir_cfg     vir_vdw     vir_cou     vir_bnd     vir_ang     vir_con     vir_tet
 cpu time      volume    temp_shl     eng_shl     vir_shl       alpha        beta       gamma     vir_pmf       press

 ------------------------------------------------------------------------------------------------------------------------
       80 -1.4680E+04  2.4875E+02 -1.6262E+04  4.4459E+03 -2.3340E+04  0.0000E+00  0.0000E+00  0.0000E+00  0.0000E+00
  40.000f -1.2255E+04  2.3451E+02 -5.6001E+03 -8.3514E+04  2.3158E+04  0.0000E+00  0.0000E+00  0.0000E+00  0.0000E+00
   1.495s  1.0833E+04  6.1357E+01  2.6323E+03  5.2645E+03  9.0000E+01  9.0000E+01  9.0000E+01  0.0000E+00  3.6674E+00

  rolling -1.2308E+04  2.5169E+02 -1.3909E+04  3.5125E+03 -1.8683E+04  0.0000E+00  0.0000E+00  0.0000E+00  0.0000E+00
 averages -8.9844E+03  2.4570E+02 -8.3326E+03 -7.1858E+04  1.8609E+04  0.0000E+00  0.0000E+00  0.0000E+00  0.0000E+00
           1.0833E+04  9.2360E+01  1.2613E+03  2.5226E+03  9.0000E+01  9.0000E+01  9.0000E+01  0.0000E+00  5.0283E+00
 ------------------------------------------------------------------------------------------------------------------------
       85 -1.5029E+04  2.1266E+02 -1.6381E+04  4.4996E+03 -2.3608E+04  0.0000E+00  0.0000E+00  0.0000E+00  0.0000E+00
  42.500f -1.2775E+04  2.1494E+02 -5.4222E+03 -8.4182E+04  2.3402E+04  0.0000E+00  0.0000E+00  0.0000E+00  0.0000E+00
   1.556s  1.0833E+04  1.3423E+01  2.7271E+03  5.4543E+03  9.0000E+01  9.0000E+01  9.0000E+01  0.0000E+00  3.4090E+00

  rolling -1.2468E+04  2.4903E+02 -1.4052E+04  3.5699E+03 -1.8968E+04  0.0000E+00  0.0000E+00  0.0000E+00  0.0000E+00
 averages -9.2071E+03  2.4384E+02 -8.1667E+03 -7.2574E+04  1.8887E+04  0.0000E+00  0.0000E+00  0.0000E+00  0.0000E+00
           1.0833E+04  8.7276E+01  1.3460E+03  2.6920E+03  9.0000E+01  9.0000E+01  9.0000E+01  0.0000E+00  4.9335E+00
 ------------------------------------------------------------------------------------------------------------------------
       90 -1.5029E+04  2.3625E+02 -1.6532E+04  4.6081E+03 -2.4022E+04  0.0000E+00  0.0000E+00  0.0000E+00  0.0000E+00
  45.000f -1.2653E+04  2.1362E+02 -5.4798E+03 -8.5541E+04  2.3789E+04  0.0000E+00  0.0000E+00  0.0000E+00  0.0000E+00
   1.626s  1.0833E+04  5.0720E+01  2.8825E+03  5.7650E+03  9.0000E+01  9.0000E+01  9.0000E+01  0.0000E+00  3.5936E+00

  rolling -1.2611E+04  2.4775E+02 -1.4186E+04  3.6247E+03 -1.9239E+04  0.0000E+00  0.0000E+00  0.0000E+00  0.0000E+00
 averages -9.4021E+03  2.4220E+02 -8.0144E+03 -7.3259E+04  1.9149E+04  0.0000E+00  0.0000E+00  0.0000E+00  0.0000E+00
           1.0833E+04  8.4334E+01  1.4274E+03  2.8548E+03  9.0000E+01  9.0000E+01  9.0000E+01  0.0000E+00  4.8538E+00
 ------------------------------------------------------------------------------------------------------------------------
       95 -1.5288E+04  2.0935E+02 -1.6619E+04  4.6589E+03 -2.4242E+04  0.0000E+00  0.0000E+00  0.0000E+00  0.0000E+00
  47.500f -1.3010E+04  1.9828E+02 -5.4304E+03 -8.6172E+04  2.3987E+04  0.0000E+00  0.0000E+00  0.0000E+00  0.0000E+00
   1.687s  1.0833E+04  1.1271E+01  2.9641E+03  5.9283E+03  9.0000E+01  9.0000E+01  9.0000E+01  0.0000E+00  3.4453E+00

  rolling -1.2752E+04  2.4548E+02 -1.4313E+04  3.6785E+03 -1.9499E+04  0.0000E+00  0.0000E+00  0.0000E+00  0.0000E+00
 averages -9.5924E+03  2.3993E+02 -7.8809E+03 -7.3931E+04  1.9401E+04  0.0000E+00  0.0000E+00  0.0000E+00  0.0000E+00
           1.0833E+04  8.0157E+01  1.5071E+03  3.0142E+03  9.0000E+01  9.0000E+01  9.0000E+01  0.0000E+00  4.7791E+00
 ------------------------------------------------------------------------------------------------------------------------
      100 -1.5288E+04  2.3102E+02 -1.6757E+04  4.7507E+03 -2.4604E+04  0.0000E+00  0.0000E+00  0.0000E+00  0.0000E+00
  50.000f -1.2924E+04  1.9948E+02 -5.4219E+03 -8.7317E+04  2.4331E+04  0.0000E+00  0.0000E+00  0.0000E+00  0.0000E+00
   1.762s  1.0833E+04  4.2771E+01  3.0963E+03  6.1926E+03  9.0000E+01  9.0000E+01  9.0000E+01  0.0000E+00  3.5762E+00

  rolling -1.2878E+04  2.4428E+02 -1.4432E+04  3.7300E+03 -1.9746E+04  0.0000E+00  0.0000E+00  0.0000E+00  0.0000E+00
 averages -9.7612E+03  2.3786E+02 -7.7573E+03 -7.4573E+04  1.9640E+04  0.0000E+00  0.0000E+00  0.0000E+00  0.0000E+00
           1.0833E+04  7.7595E+01  1.5835E+03  3.1671E+03  9.0000E+01  9.0000E+01  9.0000E+01  0.0000E+00  4.7158E+00
 ------------------------------------------------------------------------------------------------------------------------


 switching off temperature scaling at step    100


 ------------------------------------------------------------------------------------------------------------------------
      105 -1.5513E+04  2.1112E+02 -1.6856E+04  4.7964E+03 -2.4819E+04  0.0000E+00  0.0000E+00  0.0000E+00  0.0000E+00
  52.500f -1.3260E+04  1.9278E+02 -5.2992E+03 -8.7882E+04  2.4527E+04  0.0000E+00  0.0000E+00  0.0000E+00  0.0000E+00
   1.825s  1.0833E+04  9.7448E+00  3.1663E+03  6.3327E+03  9.0000E+01  9.0000E+01  9.0000E+01  0.0000E+00  3.4081E+00

  rolling -1.3267E+04  2.4267E+02 -1.4811E+04  3.8169E+03 -2.0368E+04  0.0000E+00  0.0000E+00  0.0000E+00  0.0000E+00
 averages -1.0432E+04  2.3732E+02 -6.9279E+03 -7.5641E+04  2.0250E+04  0.0000E+00  0.0000E+00  0.0000E+00  0.0000E+00
           1.0833E+04  7.3329E+01  1.7406E+03  3.4812E+03  9.0000E+01  9.0000E+01  9.0000E+01  0.0000E+00  4.2890E+00
 ------------------------------------------------------------------------------------------------------------------------
      110 -1.5513E+04  2.3154E+02 -1.6986E+04  4.8753E+03 -2.5142E+04  0.0000E+00  0.0000E+00  0.0000E+00  0.0000E+00
  55.000f -1.3207E+04  1.9689E+02 -5.2260E+03 -8.8860E+04  2.4829E+04  0.0000E+00  0.0000E+00  0.0000E+00  0.0000E+00
   1.886s  1.0833E+04  3.7518E+01  3.2816E+03  6.5632E+03  9.0000E+01  9.0000E+01  9.0000E+01  0.0000E+00  3.4890E+00

  rolling -1.3657E+04  2.3239E+02 -1.5135E+04  3.9192E+03 -2.0953E+04  0.0000E+00  0.0000E+00  0.0000E+00  0.0000E+00
 averages -1.1038E+04  2.3587E+02 -6.4001E+03 -7.6909E+04  2.0822E+04  0.0000E+00  0.0000E+00  0.0000E+00  0.0000E+00
           1.0833E+04  5.1229E+01  1.8983E+03  3.7966E+03  9.0000E+01  9.0000E+01  9.0000E+01  0.0000E+00  3.9615E+00
 ------------------------------------------------------------------------------------------------------------------------
      115 -1.5513E+04  2.5371E+02 -1.7127E+04  5.0203E+03 -2.5632E+04  0.0000E+00  0.0000E+00  0.0000E+00  0.0000E+00
  57.500f -1.3046E+04  1.9619E+02 -5.4207E+03 -9.0668E+04  2.5295E+04  0.0000E+00  0.0000E+00  0.0000E+00  0.0000E+00
   1.948s  1.0833E+04  7.1306E+01  3.4845E+03  6.9690E+03  9.0000E+01  9.0000E+01  9.0000E+01  0.0000E+00  3.7317E+00

  rolling -1.3926E+04  2.3332E+02 -1.5410E+04  4.0325E+03 -2.1499E+04  0.0000E+00  0.0000E+00  0.0000E+00  0.0000E+00
 averages -1.1392E+04  2.3415E+02 -6.1223E+03 -7.8322E+04  2.1354E+04  0.0000E+00  0.0000E+00  0.0000E+00  0.0000E+00
           1.0833E+04  5.1828E+01  2.0568E+03  4.1135E+03  9.0000E+01  9.0000E+01  9.0000E+01  0.0000E+00  3.8329E+00
 ------------------------------------------------------------------------------------------------------------------------
 ------------------------------------------------------------------------------------------------------------------------

     step     eng_tot    temp_tot     eng_cfg     eng_vdw     eng_cou     eng_bnd     eng_ang     eng_dih     eng_tet
 time          eng_pv    temp_rot     vir_cfg     vir_vdw     vir_cou     vir_bnd     vir_ang     vir_con     vir_tet
 cpu time      volume    temp_shl     eng_shl     vir_shl       alpha        beta       gamma     vir_pmf       press

 ------------------------------------------------------------------------------------------------------------------------
      120 -1.5513E+04  2.6888E+02 -1.7224E+04  5.2329E+03 -2.6226E+04  0.0000E+00  0.0000E+00  0.0000E+00  0.0000E+00
  60.000f -1.2749E+04  1.8904E+02 -6.0760E+03 -9.3327E+04  2.5865E+04  0.0000E+00  0.0000E+00  0.0000E+00  0.0000E+00
   2.009s  1.0833E+04  9.4101E+01  3.7697E+03  7.5395E+03  9.0000E+01  9.0000E+01  9.0000E+01  0.0000E+00  4.1823E+00

  rolling -1.4195E+04  2.2941E+02 -1.5654E+04  4.1512E+03 -2.2026E+04  0.0000E+00  0.0000E+00  0.0000E+00  0.0000E+00
 averages -1.1723E+04  2.3052E+02 -5.9632E+03 -7.9807E+04  2.1866E+04  0.0000E+00  0.0000E+00  0.0000E+00  0.0000E+00
           1.0833E+04  4.3343E+01  2.2206E+03  4.4412E+03  9.0000E+01  9.0000E+01  9.0000E+01  0.0000E+00  3.7392E+00
 ------------------------------------------------------------------------------------------------------------------------
      125 -1.5505E+04  2.7458E+02 -1.7251E+04  5.4796E+03 -2.6843E+04  0.0000E+00  0.0000E+00  0.0000E+00  0.0000E+00
  62.500f -1.2376E+04  1.7820E+02 -7.0281E+03 -9.6420E+04  2.6458E+04  0.0000E+00  0.0000E+00  0.0000E+00  0.0000E+00
   2.075s  1.0833E+04  9.9160E+01  4.1121E+03  8.2241E+03  9.0000E+01  9.0000E+01  9.0000E+01  0.0000E+00  4.7338E+00

  rolling -1.4388E+04  2.3212E+02 -1.5865E+04  4.2747E+03 -2.2530E+04  0.0000E+00  0.0000E+00  0.0000E+00  0.0000E+00
 averages -1.1911E+04  2.2710E+02 -5.9226E+03 -8.1352E+04  2.2354E+04  0.0000E+00  0.0000E+00  0.0000E+00  0.0000E+00
           1.0833E+04  4.6728E+01  2.3902E+03  4.7803E+03  9.0000E+01  9.0000E+01  9.0000E+01  0.0000E+00  3.7471E+00
 ------------------------------------------------------------------------------------------------------------------------
      130 -1.5508E+04  2.7546E+02 -1.7261E+04  5.6985E+03 -2.7426E+04  0.0000E+00  0.0000E+00  0.0000E+00  0.0000E+00
  65.000f -1.2127E+04  1.6840E+02 -7.7100E+03 -9.9166E+04  2.7022E+04  0.0000E+00  0.0000E+00  0.0000E+00  0.0000E+00
   2.148s  1.0833E+04  9.3049E+01  4.4669E+03  8.9337E+03  9.0000E+01  9.0000E+01  9.0000E+01  0.0000E+00  5.1147E+00

  rolling -1.4582E+04  2.3105E+02 -1.6052E+04  4.4027E+03 -2.3023E+04  0.0000E+00  0.0000E+00  0.0000E+00  0.0000E+00
 averages -1.2087E+04  2.2207E+02 -5.9578E+03 -8.2955E+04  2.2829E+04  0.0000E+00  0.0000E+00  0.0000E+00  0.0000E+00
           1.0833E+04  4.2956E+01  2.5685E+03  5.1371E+03  9.0000E+01  9.0000E+01  9.0000E+01  0.0000E+00  3.7741E+00
 ------------------------------------------------------------------------------------------------------------------------
      135 -1.5502E+04  2.7656E+02 -1.7261E+04  5.8440E+03 -2.7891E+04  0.0000E+00  0.0000E+00  0.0000E+00  0.0000E+00
  67.500f -1.2066E+04  1.6272E+02 -7.8262E+03 -1.0099E+05  2.7471E+04  0.0000E+00  0.0000E+00  0.0000E+00  0.0000E+00
   2.209s  1.0833E+04  8.5119E+01  4.7854E+03  9.5708E+03  9.0000E+01  9.0000E+01  9.0000E+01  0.0000E+00  5.1986E+00

  rolling -1.4725E+04  2.3418E+02 -1.6214E+04  4.5297E+03 -2.3496E+04  0.0000E+00  0.0000E+00  0.0000E+00  0.0000E+00
 averages -1.2183E+04  2.1741E+02 -6.0272E+03 -8.4545E+04  2.3284E+04  0.0000E+00  0.0000E+00  0.0000E+00  0.0000E+00
           1.0833E+04  4.6324E+01  2.7523E+03  5.5045E+03  9.0000E+01  9.0000E+01  9.0000E+01  0.0000E+00  3.8442E+00
 ------------------------------------------------------------------------------------------------------------------------
      140 -1.5502E+04  2.7908E+02 -1.7277E+04  5.9067E+03 -2.8214E+04  0.0000E+00  0.0000E+00  0.0000E+00  0.0000E+00
  70.000f -1.2200E+04  1.6052E+02 -7.3781E+03 -1.0178E+05  2.7783E+04  0.0000E+00  0.0000E+00  0.0000E+00  0.0000E+00
   2.273s  1.0833E+04  8.0492E+01  5.0304E+03  1.0061E+04  9.0000E+01  9.0000E+01  9.0000E+01  0.0000E+00  4.9958E+00

  rolling -1.4867E+04  2.3463E+02 -1.6360E+04  4.6539E+03 -2.3954E+04  0.0000E+00  0.0000E+00  0.0000E+00  0.0000E+00
 averages -1.2290E+04  2.1182E+02 -6.0949E+03 -8.6101E+04  2.3722E+04  0.0000E+00  0.0000E+00  0.0000E+00  0.0000E+00
           1.0833E+04  4.4603E+01  2.9408E+03  5.8816E+03  9.0000E+01  9.0000E+01  9.0000E+01  0.0000E+00  3.8991E+00
 ------------------------------------------------------------------------------------------------------------------------
      145 -1.5501E+04  2.8268E+02 -1.7299E+04  5.8978E+03 -2.8380E+04  0.0000E+00  0.0000E+00  0.0000E+00  0.0000E+00
  72.500f -1.2446E+04  1.5930E+02 -6.5801E+03 -1.0166E+05  2.7942E+04  0.0000E+00  0.0000E+00  0.0000E+00  0.0000E+00
   2.334s  1.0833E+04  8.1509E+01  5.1836E+03  1.0367E+04  9.0000E+01  9.0000E+01  9.0000E+01  0.0000E+00  4.6204E+00

  rolling -1.4973E+04  2.3812E+02 -1.6488E+04  4.7694E+03 -2.4385E+04  0.0000E+00  0.0000E+00  0.0000E+00  0.0000E+00
 averages -1.2360E+04  2.0684E+02 -6.1276E+03 -8.7546E+04  2.4133E+04  0.0000E+00  0.0000E+00  0.0000E+00  0.0000E+00
           1.0833E+04  4.7902E+01  3.1276E+03  6.2552E+03  9.0000E+01  9.0000E+01  9.0000E+01  0.0000E+00  3.9540E+00
 ------------------------------------------------------------------------------------------------------------------------
      150 -1.5495E+04  2.8720E+02 -1.7321E+04  5.8353E+03 -2.8402E+04  0.0000E+00  0.0000E+00  0.0000E+00  0.0000E+00
  75.000f -1.2733E+04  1.5747E+02 -5.6330E+03 -1.0086E+05  2.7960E+04  0.0000E+00  0.0000E+00  0.0000E+00  0.0000E+00
   2.395s  1.0833E+04  8.8271E+01  5.2451E+03  1.0490E+04  9.0000E+01  9.0000E+01  9.0000E+01  0.0000E+00  4.1777E+00

  rolling -1.5080E+04  2.3972E+02 -1.6604E+04  4.8761E+03 -2.4791E+04  0.0000E+00  0.0000E+00  0.0000E+00  0.0000E+00
 averages -1.2450E+04  2.0125E+02 -6.1191E+03 -8.8881E+04  2.4520E+04  0.0000E+00  0.0000E+00  0.0000E+00  0.0000E+00
           1.0833E+04  4.8034E+01  3.3108E+03  6.6215E+03  9.0000E+01  9.0000E+01  9.0000E+01  0.0000E+00  3.9778E+00
 ------------------------------------------------------------------------------------------------------------------------
      155 -1.5493E+04  2.9222E+02 -1.7352E+04  5.7431E+03 -2.8324E+04  0.0000E+00  0.0000E+00  0.0000E+00  0.0000E+00
  77.500f -1.3015E+04  1.5539E+02 -4.7067E+03 -9.9688E+04  2.7884E+04  0.0000E+00  0.0000E+00  0.0000E+00  0.0000E+00
   2.457s  1.0833E+04  9.8149E+01  5.2294E+03  1.0459E+04  9.0000E+01  9.0000E+01  9.0000E+01  0.0000E+00  3.7495E+00

  rolling -1.5158E+04  2.4383E+02 -1.6709E+04  4.9703E+03 -2.5163E+04  0.0000E+00  0.0000E+00  0.0000E+00  0.0000E+00
 averages -1.2522E+04  1.9657E+02 -6.0572E+03 -9.0058E+04  2.4874E+04  0.0000E+00  0.0000E+00  0.0000E+00  0.0000E+00
           1.0833E+04  5.2188E+01  3.4842E+03  6.9684E+03  9.0000E+01  9.0000E+01  9.0000E+01  0.0000E+00  3.9880E+00
 ------------------------------------------------------------------------------------------------------------------------
 ------------------------------------------------------------------------------------------------------------------------

     step     eng_tot    temp_tot     eng_cfg     eng_vdw     eng_cou     eng_bnd     eng_ang     eng_dih     eng_tet
 time          eng_pv    temp_rot     vir_cfg     vir_vdw     vir_cou     vir_bnd     vir_ang     vir_con     vir_tet
 cpu time      volume    temp_shl     eng_shl     vir_shl       alpha        beta       gamma     vir_pmf       press

 ------------------------------------------------------------------------------------------------------------------------
      160 -1.5497E+04  2.9721E+02 -1.7387E+04  5.6438E+03 -2.8191E+04  0.0000E+00  0.0000E+00  0.0000E+00  0.0000E+00
  80.000f -1.3253E+04  1.5413E+02 -3.9327E+03 -9.8424E+04  2.7755E+04  0.0000E+00  0.0000E+00  0.0000E+00  0.0000E+00
   2.520s  1.0833E+04  1.0783E+02  5.1593E+03  1.0319E+04  9.0000E+01  9.0000E+01  9.0000E+01  0.0000E+00  3.3953E+00

  rolling -1.5237E+04  2.4667E+02 -1.6805E+04  5.0544E+03 -2.5507E+04  0.0000E+00  0.0000E+00  0.0000E+00  0.0000E+00
 averages -1.2612E+04  1.9180E+02 -5.9561E+03 -9.1108E+04  2.5201E+04  0.0000E+00  0.0000E+00  0.0000E+00  0.0000E+00
           1.0833E+04  5.4245E+01  3.6474E+03  7.2948E+03  9.0000E+01  9.0000E+01  9.0000E+01  0.0000E+00  3.9705E+00
 ------------------------------------------------------------------------------------------------------------------------
      165 -1.5498E+04  3.0147E+02 -1.7416E+04  5.5565E+03 -2.8033E+04  0.0000E+00  0.0000E+00  0.0000E+00  0.0000E+00
  82.500f -1.3397E+04  1.5369E+02 -3.4470E+03 -9.7311E+04  2.7571E+04  0.0000E+00  0.0000E+00  0.0000E+00  0.0000E+00
   2.585s  1.0833E+04  1.1488E+02  5.0608E+03  1.0122E+04  9.0000E+01  9.0000E+01  9.0000E+01  0.0000E+00  3.1791E+00

  rolling -1.5295E+04  2.5133E+02 -1.6894E+04  5.1273E+03 -2.5817E+04  0.0000E+00  0.0000E+00  0.0000E+00  0.0000E+00
 averages -1.2686E+04  1.8780E+02 -5.8238E+03 -9.2016E+04  2.5493E+04  0.0000E+00  0.0000E+00  0.0000E+00  0.0000E+00
           1.0833E+04  5.9420E+01  3.7967E+03  7.5933E+03  9.0000E+01  9.0000E+01  9.0000E+01  0.0000E+00  3.9466E+00
 ------------------------------------------------------------------------------------------------------------------------
      170 -1.5505E+04  3.0434E+02 -1.7440E+04  5.5007E+03 -2.7898E+04  0.0000E+00  0.0000E+00  0.0000E+00  0.0000E+00
  85.000f -1.3450E+04  1.5297E+02 -3.2639E+03 -9.6595E+04  2.7444E+04  0.0000E+00  0.0000E+00  0.0000E+00  0.0000E+00
   2.648s  1.0833E+04  1.1869E+02  4.9566E+03  9.9131E+03  9.0000E+01  9.0000E+01  9.0000E+01  0.0000E+00  3.1075E+00

  rolling -1.5354E+04  2.5480E+02 -1.6974E+04  5.1926E+03 -2.6101E+04  0.0000E+00  0.0000E+00  0.0000E+00  0.0000E+00
 averages -1.2767E+04  1.8371E+02 -5.6860E+03 -9.2828E+04  2.5761E+04  0.0000E+00  0.0000E+00  0.0000E+00  0.0000E+00
           1.0833E+04  6.2752E+01  3.9338E+03  7.8676E+03  9.0000E+01  9.0000E+01  9.0000E+01  0.0000E+00  3.9125E+00
 ------------------------------------------------------------------------------------------------------------------------
      175 -1.5503E+04  3.0609E+02 -1.7450E+04  5.4841E+03 -2.7797E+04  0.0000E+00  0.0000E+00  0.0000E+00  0.0000E+00
  87.500f -1.3377E+04  1.5078E+02 -3.4436E+03 -9.6376E+04  2.7352E+04  0.0000E+00  0.0000E+00  0.0000E+00  0.0000E+00
   2.709s  1.0833E+04  1.2104E+02  4.8629E+03  9.7257E+03  9.0000E+01  9.0000E+01  9.0000E+01  0.0000E+00  3.2164E+00

  rolling -1.5395E+04  2.5966E+02 -1.7046E+04  5.2511E+03 -2.6355E+04  0.0000E+00  0.0000E+00  0.0000E+00  0.0000E+00
 averages -1.2822E+04  1.8010E+02 -5.5592E+03 -9.3553E+04  2.6000E+04  0.0000E+00  0.0000E+00  0.0000E+00  0.0000E+00
           1.0833E+04  6.8398E+01  4.0575E+03  8.1150E+03  9.0000E+01  9.0000E+01  9.0000E+01  0.0000E+00  3.8913E+00
 ------------------------------------------------------------------------------------------------------------------------
      180 -1.5504E+04  3.0736E+02 -1.7459E+04  5.5042E+03 -2.7754E+04  0.0000E+00  0.0000E+00  0.0000E+00  0.0000E+00
  90.000f -1.3219E+04  1.4690E+02 -3.8798E+03 -9.6623E+04  2.7314E+04  0.0000E+00  0.0000E+00  0.0000E+00  0.0000E+00
   2.770s  1.0833E+04  1.2338E+02  4.7900E+03  9.5801E+03  9.0000E+01  9.0000E+01  9.0000E+01  0.0000E+00  3.4569E+00

  rolling -1.5436E+04  2.6326E+02 -1.7110E+04  5.3062E+03 -2.6587E+04  0.0000E+00  0.0000E+00  0.0000E+00  0.0000E+00
 averages -1.2872E+04  1.7594E+02 -5.4626E+03 -9.4237E+04  2.6219E+04  0.0000E+00  0.0000E+00  0.0000E+00  0.0000E+00
           1.0833E+04  7.2444E+01  4.1708E+03  8.3416E+03  9.0000E+01  9.0000E+01  9.0000E+01  0.0000E+00  3.8790E+00
 ------------------------------------------------------------------------------------------------------------------------
      185 -1.5503E+04  3.0829E+02 -1.7463E+04  5.5543E+03 -2.7763E+04  0.0000E+00  0.0000E+00  0.0000E+00  0.0000E+00
  92.500f -1.3004E+04  1.4284E+02 -4.4832E+03 -9.7258E+04  2.7325E+04  0.0000E+00  0.0000E+00  0.0000E+00  0.0000E+00
   2.832s  1.0833E+04  1.2459E+02  4.7454E+03  9.4909E+03  9.0000E+01  9.0000E+01  9.0000E+01  0.0000E+00  3.7801E+00

  rolling -1.5459E+04  2.6834E+02 -1.7166E+04  5.3585E+03 -2.6798E+04  0.0000E+00  0.0000E+00  0.0000E+00  0.0000E+00
 averages -1.2888E+04  1.7245E+02 -5.3986E+03 -9.4884E+04  2.6418E+04  0.0000E+00  0.0000E+00  0.0000E+00  0.0000E+00
           1.0833E+04  7.8362E+01  4.2738E+03  8.5476E+03  9.0000E+01  9.0000E+01  9.0000E+01  0.0000E+00  3.8905E+00
 ------------------------------------------------------------------------------------------------------------------------
      190 -1.5502E+04  3.0875E+02 -1.7466E+04  5.6288E+03 -2.7828E+04  0.0000E+00  0.0000E+00  0.0000E+00  0.0000E+00
  95.000f -1.2767E+04  1.4095E+02 -5.1728E+03 -9.8206E+04  2.7386E+04  0.0000E+00  0.0000E+00  0.0000E+00  0.0000E+00
   2.895s  1.0833E+04  1.2268E+02  4.7335E+03  9.4669E+03  9.0000E+01  9.0000E+01  9.0000E+01  0.0000E+00  4.1369E+00

  rolling -1.5483E+04  2.7246E+02 -1.7216E+04  5.4105E+03 -2.6997E+04  0.0000E+00  0.0000E+00  0.0000E+00  0.0000E+00
 averages -1.2895E+04  1.6880E+02 -5.3720E+03 -9.5530E+04  2.6605E+04  0.0000E+00  0.0000E+00  0.0000E+00  0.0000E+00
           1.0833E+04  8.2830E+01  4.3700E+03  8.7400E+03  9.0000E+01  9.0000E+01  9.0000E+01  0.0000E+00  3.9152E+00
 ------------------------------------------------------------------------------------------------------------------------
      195 -1.5502E+04  3.1042E+02 -1.7476E+04  5.7092E+03 -2.7939E+04  0.0000E+00  0.0000E+00  0.0000E+00  0.0000E+00
  97.500f -1.2572E+04  1.4253E+02 -5.7490E+03 -9.9233E+04  2.7490E+04  0.0000E+00  0.0000E+00  0.0000E+00  0.0000E+00
   2.956s  1.0833E+04  1.2015E+02  4.7538E+03  9.5077E+03  9.0000E+01  9.0000E+01  9.0000E+01  0.0000E+00  4.4331E+00

  rolling -1.5494E+04  2.7772E+02 -1.7260E+04  5.4620E+03 -2.7182E+04  0.0000E+00  0.0000E+00  0.0000E+00  0.0000E+00
 averages -1.2876E+04  1.6593E+02 -5.3749E+03 -9.6170E+04  2.6781E+04  0.0000E+00  0.0000E+00  0.0000E+00  0.0000E+00
           1.0833E+04  8.8634E+01  4.4601E+03  8.9202E+03  9.0000E+01  9.0000E+01  9.0000E+01  0.0000E+00  3.9596E+00
 ------------------------------------------------------------------------------------------------------------------------
 ------------------------------------------------------------------------------------------------------------------------

     step     eng_tot    temp_tot     eng_cfg     eng_vdw     eng_cou     eng_bnd     eng_ang     eng_dih     eng_tet
 time          eng_pv    temp_rot     vir_cfg     vir_vdw     vir_cou     vir_bnd     vir_ang     vir_con     vir_tet
 cpu time      volume    temp_shl     eng_shl     vir_shl       alpha        beta       gamma     vir_pmf       press

 ------------------------------------------------------------------------------------------------------------------------
      200 -1.5513E+04  3.1423E+02 -1.7512E+04  5.7834E+03 -2.8097E+04  0.0000E+00  0.0000E+00  0.0000E+00  0.0000E+00
 100.000f -1.2458E+04  1.4715E+02 -6.1040E+03 -1.0018E+05  2.7623E+04  0.0000E+00  0.0000E+00  0.0000E+00  0.0000E+00
   3.023s  1.0833E+04  1.1937E+02  4.8020E+03  9.6039E+03  9.0000E+01  9.0000E+01  9.0000E+01  0.0000E+00  4.6217E+00

  rolling -1.5504E+04  2.8227E+02 -1.7300E+04  5.5143E+03 -2.7362E+04  0.0000E+00  0.0000E+00  0.0000E+00  0.0000E+00
 averages -1.2852E+04  1.6326E+02 -5.4037E+03 -9.6821E+04  2.6950E+04  0.0000E+00  0.0000E+00  0.0000E+00  0.0000E+00
           1.0833E+04  9.3163E+01  4.5473E+03  9.0947E+03  9.0000E+01  9.0000E+01  9.0000E+01  0.0000E+00  4.0119E+00
 ------------------------------------------------------------------------------------------------------------------------
      205 -1.5516E+04  3.1982E+02 -1.7550E+04  5.8471E+03 -2.8268E+04  0.0000E+00  0.0000E+00  0.0000E+00  0.0000E+00
 102.500f -1.2400E+04  1.5327E+02 -6.2541E+03 -1.0098E+05  2.7778E+04  0.0000E+00  0.0000E+00  0.0000E+00  0.0000E+00
   3.090s  1.0833E+04  1.2138E+02  4.8711E+03  9.7422E+03  9.0000E+01  9.0000E+01  9.0000E+01  0.0000E+00  4.7137E+00

  rolling -1.5505E+04  2.8786E+02 -1.7336E+04  5.5662E+03 -2.7534E+04  0.0000E+00  0.0000E+00  0.0000E+00  0.0000E+00
 averages -1.2810E+04  1.6125E+02 -5.4459E+03 -9.7468E+04  2.7113E+04  0.0000E+00  0.0000E+00  0.0000E+00  0.0000E+00
           1.0833E+04  9.8965E+01  4.6321E+03  9.2642E+03  9.0000E+01  9.0000E+01  9.0000E+01  0.0000E+00  4.0755E+00
 ------------------------------------------------------------------------------------------------------------------------
      210 -1.5511E+04  3.2587E+02 -1.7584E+04  5.8899E+03 -2.8427E+04  0.0000E+00  0.0000E+00  0.0000E+00  0.0000E+00
 105.000f -1.2408E+04  1.5822E+02 -6.1720E+03 -1.0150E+05  2.7921E+04  0.0000E+00  0.0000E+00  0.0000E+00  0.0000E+00
   3.156s  1.0833E+04  1.2547E+02  4.9534E+03  9.9069E+03  9.0000E+01  9.0000E+01  9.0000E+01  0.0000E+00  4.6952E+00

  rolling -1.5504E+04  2.9290E+02 -1.7367E+04  5.6181E+03 -2.7702E+04  0.0000E+00  0.0000E+00  0.0000E+00  0.0000E+00
 averages -1.2768E+04  1.5930E+02 -5.4954E+03 -9.8113E+04  2.7271E+04  0.0000E+00  0.0000E+00  0.0000E+00  0.0000E+00
           1.0833E+04  1.0389E+02  4.7166E+03  9.4333E+03  9.0000E+01  9.0000E+01  9.0000E+01  0.0000E+00  4.1390E+00
 ------------------------------------------------------------------------------------------------------------------------
      215 -1.5506E+04  3.3058E+02 -1.7609E+04  5.9005E+03 -2.8549E+04  0.0000E+00  0.0000E+00  0.0000E+00  0.0000E+00
 107.500f -1.2506E+04  1.5979E+02 -5.8103E+03 -1.0160E+05  2.8033E+04  0.0000E+00  0.0000E+00  0.0000E+00  0.0000E+00
   3.218s  1.0833E+04  1.2948E+02  5.0402E+03  1.0080E+04  9.0000E+01  9.0000E+01  9.0000E+01  0.0000E+00  4.5380E+00

  rolling -1.5504E+04  2.9708E+02 -1.7394E+04  5.6652E+03 -2.7856E+04  0.0000E+00  0.0000E+00  0.0000E+00  0.0000E+00
 averages -1.2735E+04  1.5743E+02 -5.5289E+03 -9.8700E+04  2.7416E+04  0.0000E+00  0.0000E+00  0.0000E+00  0.0000E+00
           1.0833E+04  1.0739E+02  4.7971E+03  9.5942E+03  9.0000E+01  9.0000E+01  9.0000E+01  0.0000E+00  4.1888E+00
 ------------------------------------------------------------------------------------------------------------------------
      220 -1.5506E+04  3.3348E+02 -1.7627E+04  5.8759E+03 -2.8625E+04  0.0000E+00  0.0000E+00  0.0000E+00  0.0000E+00
 110.000f -1.2704E+04  1.5819E+02 -5.1707E+03 -1.0126E+05  2.8104E+04  0.0000E+00  0.0000E+00  0.0000E+00  0.0000E+00
   3.281s  1.0833E+04  1.3174E+02  5.1221E+03  1.0244E+04  9.0000E+01  9.0000E+01  9.0000E+01  0.0000E+00  4.2392E+00

  rolling -1.5504E+04  3.0053E+02 -1.7415E+04  5.7024E+03 -2.7987E+04  0.0000E+00  0.0000E+00  0.0000E+00  0.0000E+00
 averages -1.2722E+04  1.5576E+02 -5.5121E+03 -9.9161E+04  2.7538E+04  0.0000E+00  0.0000E+00  0.0000E+00  0.0000E+00
           1.0833E+04  1.0962E+02  4.8691E+03  9.7382E+03  9.0000E+01  9.0000E+01  9.0000E+01  0.0000E+00  4.2078E+00
 ------------------------------------------------------------------------------------------------------------------------
      225 -1.5505E+04  3.3483E+02 -1.7635E+04  5.8356E+03 -2.8661E+04  0.0000E+00  0.0000E+00  0.0000E+00  0.0000E+00
 112.500f -1.2922E+04  1.5571E+02 -4.4795E+03 -1.0071E+05  2.8137E+04  0.0000E+00  0.0000E+00  0.0000E+00  0.0000E+00
   3.342s  1.0833E+04  1.3109E+02  5.1912E+03  1.0382E+04  9.0000E+01  9.0000E+01  9.0000E+01  0.0000E+00  3.9072E+00

  rolling -1.5503E+04  3.0360E+02 -1.7435E+04  5.7260E+03 -2.8089E+04  0.0000E+00  0.0000E+00  0.0000E+00  0.0000E+00
 averages -1.2738E+04  1.5446E+02 -5.4177E+03 -9.9448E+04  2.7633E+04  0.0000E+00  0.0000E+00  0.0000E+00  0.0000E+00
           1.0833E+04  1.1128E+02  4.9288E+03  9.8575E+03  9.0000E+01  9.0000E+01  9.0000E+01  0.0000E+00  4.1840E+00
 ------------------------------------------------------------------------------------------------------------------------
      230 -1.5507E+04  3.3655E+02 -1.7647E+04  5.7966E+03 -2.8686E+04  0.0000E+00  0.0000E+00  0.0000E+00  0.0000E+00
 115.000f -1.3118E+04  1.5491E+02 -3.8711E+03 -1.0019E+05  2.8160E+04  0.0000E+00  0.0000E+00  0.0000E+00  0.0000E+00
   3.403s  1.0833E+04  1.2982E+02  5.2425E+03  1.0485E+04  9.0000E+01  9.0000E+01  9.0000E+01  0.0000E+00  3.6140E+00

  rolling -1.5503E+04  3.0662E+02 -1.7454E+04  5.7358E+03 -2.8163E+04  0.0000E+00  0.0000E+00  0.0000E+00  0.0000E+00
 averages -1.2779E+04  1.5361E+02 -5.2492E+03 -9.9562E+04  2.7701E+04  0.0000E+00  0.0000E+00  0.0000E+00  0.0000E+00
           1.0833E+04  1.1299E+02  4.9736E+03  9.9473E+03  9.0000E+01  9.0000E+01  9.0000E+01  0.0000E+00  4.1212E+00
 ------------------------------------------------------------------------------------------------------------------------
      235 -1.5497E+04  3.4035E+02 -1.7661E+04  5.7646E+03 -2.8703E+04  0.0000E+00  0.0000E+00  0.0000E+00  0.0000E+00
 117.500f -1.3258E+04  1.5677E+02 -3.3822E+03 -9.9770E+04  2.8195E+04  0.0000E+00  0.0000E+00  0.0000E+00  0.0000E+00
   3.470s  1.0833E+04  1.3060E+02  5.2765E+03  1.0553E+04  9.0000E+01  9.0000E+01  9.0000E+01  0.0000E+00  3.3860E+00

  rolling -1.5503E+04  3.0975E+02 -1.7473E+04  5.7350E+03 -2.8212E+04  0.0000E+00  0.0000E+00  0.0000E+00  0.0000E+00
 averages -1.2836E+04  1.5317E+02 -5.0364E+03 -9.9541E+04  2.7744E+04  0.0000E+00  0.0000E+00  0.0000E+00  0.0000E+00
           1.0833E+04  1.1509E+02  5.0037E+03  1.0007E+04  9.0000E+01  9.0000E+01  9.0000E+01  0.0000E+00  4.0354E+00
 ------------------------------------------------------------------------------------------------------------------------
 ------------------------------------------------------------------------------------------------------------------------

     step     eng_tot    temp_tot     eng_cfg     eng_vdw     eng_cou     eng_bnd     eng_ang     eng_dih     eng_tet
 time          eng_pv    temp_rot     vir_cfg     vir_vdw     vir_cou     vir_bnd     vir_ang     vir_con     vir_tet
 cpu time      volume    temp_shl     eng_shl     vir_shl       alpha        beta       gamma     vir_pmf       press

 ------------------------------------------------------------------------------------------------------------------------
      240 -1.5494E+04  3.4538E+02 -1.7691E+04  5.7434E+03 -2.8735E+04  0.0000E+00  0.0000E+00  0.0000E+00  0.0000E+00
 120.000f -1.3355E+04  1.6026E+02 -3.0439E+03 -9.9496E+04  2.8226E+04  0.0000E+00  0.0000E+00  0.0000E+00  0.0000E+00
   3.531s  1.0833E+04  1.3298E+02  5.3003E+03  1.0601E+04  9.0000E+01  9.0000E+01  9.0000E+01  0.0000E+00  3.2364E+00

  rolling -1.5503E+04  3.1302E+02 -1.7494E+04  5.7282E+03 -2.8243E+04  0.0000E+00  0.0000E+00  0.0000E+00  0.0000E+00
 averages -1.2895E+04  1.5305E+02 -4.8152E+03 -9.9444E+04  2.7771E+04  0.0000E+00  0.0000E+00  0.0000E+00  0.0000E+00
           1.0833E+04  1.1758E+02  5.0213E+03  1.0043E+04  9.0000E+01  9.0000E+01  9.0000E+01  0.0000E+00  3.9452E+00
 ------------------------------------------------------------------------------------------------------------------------
      245 -1.5489E+04  3.5024E+02 -1.7717E+04  5.7353E+03 -2.8775E+04  0.0000E+00  0.0000E+00  0.0000E+00  0.0000E+00
 122.500f -1.3397E+04  1.6383E+02 -2.8619E+03 -9.9394E+04  2.8264E+04  0.0000E+00  0.0000E+00  0.0000E+00  0.0000E+00
   3.592s  1.0833E+04  1.3598E+02  5.3229E+03  1.0646E+04  9.0000E+01  9.0000E+01  9.0000E+01  0.0000E+00  3.1644E+00

  rolling -1.5502E+04  3.1638E+02 -1.7515E+04  5.7197E+03 -2.8265E+04  0.0000E+00  0.0000E+00  0.0000E+00  0.0000E+00
 averages -1.2947E+04  1.5318E+02 -4.6151E+03 -9.9326E+04  2.7789E+04  0.0000E+00  0.0000E+00  0.0000E+00  0.0000E+00
           1.0833E+04  1.2029E+02  5.0305E+03  1.0061E+04  9.0000E+01  9.0000E+01  9.0000E+01  0.0000E+00  3.8654E+00
 ------------------------------------------------------------------------------------------------------------------------
      250 -1.5487E+04  3.5381E+02 -1.7737E+04  5.7446E+03 -2.8833E+04  0.0000E+00  0.0000E+00  0.0000E+00  0.0000E+00
 125.000f -1.3392E+04  1.6628E+02 -2.8401E+03 -9.9508E+04  2.8319E+04  0.0000E+00  0.0000E+00  0.0000E+00  0.0000E+00
   3.653s  1.0833E+04  1.3842E+02  5.3516E+03  1.0703E+04  9.0000E+01  9.0000E+01  9.0000E+01  0.0000E+00  3.1684E+00

  rolling -1.5502E+04  3.1974E+02 -1.7536E+04  5.7135E+03 -2.8285E+04  0.0000E+00  0.0000E+00  0.0000E+00  0.0000E+00
 averages -1.2986E+04  1.5354E+02 -4.4561E+03 -9.9237E+04  2.7806E+04  0.0000E+00  0.0000E+00  0.0000E+00  0.0000E+00
           1.0833E+04  1.2291E+02  5.0361E+03  1.0072E+04  9.0000E+01  9.0000E+01  9.0000E+01  0.0000E+00  3.8057E+00
 ------------------------------------------------------------------------------------------------------------------------
      255 -1.5484E+04  3.5602E+02 -1.7748E+04  5.7661E+03 -2.8903E+04  0.0000E+00  0.0000E+00  0.0000E+00  0.0000E+00
 127.500f -1.3358E+04  1.6720E+02 -2.9116E+03 -9.9770E+04  2.8386E+04  0.0000E+00  0.0000E+00  0.0000E+00  0.0000E+00
   3.716s  1.0833E+04  1.3993E+02  5.3885E+03  1.0777E+04  9.0000E+01  9.0000E+01  9.0000E+01  0.0000E+00  3.2157E+00

  rolling -1.5501E+04  3.2299E+02 -1.7556E+04  5.7123E+03 -2.8311E+04  0.0000E+00  0.0000E+00  0.0000E+00  0.0000E+00
 averages -1.3010E+04  1.5407E+02 -4.3468E+03 -9.9212E+04  2.7828E+04  0.0000E+00  0.0000E+00  0.0000E+00  0.0000E+00
           1.0833E+04  1.2518E+02  5.0427E+03  1.0085E+04  9.0000E+01  9.0000E+01  9.0000E+01  0.0000E+00  3.7697E+00
 ------------------------------------------------------------------------------------------------------------------------
      260 -1.5481E+04  3.5640E+02 -1.7748E+04  5.7896E+03 -2.8968E+04  0.0000E+00  0.0000E+00  0.0000E+00  0.0000E+00
 130.000f -1.3328E+04  1.6677E+02 -2.9867E+03 -1.0005E+05  2.8452E+04  0.0000E+00  0.0000E+00  0.0000E+00  0.0000E+00
   3.778s  1.0833E+04  1.3886E+02  5.4305E+03  1.0861E+04  9.0000E+01  9.0000E+01  9.0000E+01  0.0000E+00  3.2574E+00

  rolling -1.5501E+04  3.2605E+02 -1.7575E+04  5.7171E+03 -2.8346E+04  0.0000E+00  0.0000E+00  0.0000E+00  0.0000E+00
 averages -1.3018E+04  1.5470E+02 -4.2832E+03 -9.9262E+04  2.7859E+04  0.0000E+00  0.0000E+00  0.0000E+00  0.0000E+00
           1.0833E+04  1.2695E+02  5.0538E+03  1.0108E+04  9.0000E+01  9.0000E+01  9.0000E+01  0.0000E+00  3.7552E+00
 ------------------------------------------------------------------------------------------------------------------------
      265 -1.5461E+04  3.5359E+02 -1.7710E+04  5.8109E+03 -2.8991E+04  0.0000E+00  0.0000E+00  0.0000E+00  0.0000E+00
 132.500f -1.3288E+04  1.6502E+02 -3.0727E+03 -1.0029E+05  2.8521E+04  0.0000E+00  0.0000E+00  0.0000E+00  0.0000E+00
   3.844s  1.0833E+04  1.3366E+02  5.4700E+03  1.0940E+04  9.0000E+01  9.0000E+01  9.0000E+01  0.0000E+00  3.2883E+00

  rolling -1.5499E+04  3.2881E+02 -1.7591E+04  5.7278E+03 -2.8390E+04  0.0000E+00  0.0000E+00  0.0000E+00  0.0000E+00
 averages -1.3016E+04  1.5530E+02 -4.2537E+03 -9.9385E+04  2.7902E+04  0.0000E+00  0.0000E+00  0.0000E+00  0.0000E+00
           1.0833E+04  1.2813E+02  5.0715E+03  1.0143E+04  9.0000E+01  9.0000E+01  9.0000E+01  0.0000E+00  3.7561E+00
 ------------------------------------------------------------------------------------------------------------------------
      270 -1.5459E+04  3.5091E+02 -1.7691E+04  5.8099E+03 -2.8998E+04  0.0000E+00  0.0000E+00  0.0000E+00  0.0000E+00
 135.000f -1.3321E+04  1.6235E+02 -2.9847E+03 -1.0026E+05  2.8530E+04  0.0000E+00  0.0000E+00  0.0000E+00  0.0000E+00
   3.906s  1.0833E+04  1.3100E+02  5.4962E+03  1.0992E+04  9.0000E+01  9.0000E+01  9.0000E+01  0.0000E+00  3.2354E+00

  rolling -1.5497E+04  3.3123E+02 -1.7604E+04  5.7425E+03 -2.8442E+04  0.0000E+00  0.0000E+00  0.0000E+00  0.0000E+00
 averages -1.3009E+04  1.5580E+02 -4.2407E+03 -9.9559E+04  2.7954E+04  0.0000E+00  0.0000E+00  0.0000E+00  0.0000E+00
           1.0833E+04  1.2884E+02  5.0960E+03  1.0192E+04  9.0000E+01  9.0000E+01  9.0000E+01  0.0000E+00  3.7634E+00
 ------------------------------------------------------------------------------------------------------------------------
      275 -1.5457E+04  3.5335E+02 -1.7704E+04  5.7640E+03 -2.8971E+04  0.0000E+00  0.0000E+00  0.0000E+00  0.0000E+00
 137.500f -1.3475E+04  1.5902E+02 -2.4611E+03 -9.9660E+04  2.8504E+04  0.0000E+00  0.0000E+00  0.0000E+00  0.0000E+00
   3.967s  1.0833E+04  1.3781E+02  5.5031E+03  1.1006E+04  9.0000E+01  9.0000E+01  9.0000E+01  0.0000E+00  2.9977E+00

  rolling -1.5495E+04  3.3355E+02 -1.7616E+04  5.7574E+03 -2.8500E+04  0.0000E+00  0.0000E+00  0.0000E+00  0.0000E+00
 averages -1.3009E+04  1.5623E+02 -4.2087E+03 -9.9735E+04  2.8011E+04  0.0000E+00  0.0000E+00  0.0000E+00  0.0000E+00
           1.0833E+04  1.2955E+02  5.1261E+03  1.0252E+04  9.0000E+01  9.0000E+01  9.0000E+01  0.0000E+00  3.7608E+00
 ------------------------------------------------------------------------------------------------------------------------
 ------------------------------------------------------------------------------------------------------------------------

     step     eng_tot    temp_tot     eng_cfg     eng_vdw     eng_cou     eng_bnd     eng_ang     eng_dih     eng_tet
 time          eng_pv    temp_rot     vir_cfg     vir_vdw     vir_cou     vir_bnd     vir_ang     vir_con     vir_tet
 cpu time      volume    temp_shl     eng_shl     vir_shl       alpha        beta       gamma     vir_pmf       press

 ------------------------------------------------------------------------------------------------------------------------
      280 -1.5449E+04  3.5862E+02 -1.7730E+04  5.6965E+03 -2.8921E+04  0.0000E+00  0.0000E+00  0.0000E+00  0.0000E+00
 140.000f -1.3661E+04  1.5525E+02 -1.7889E+03 -9.8798E+04  2.8452E+04  0.0000E+00  0.0000E+00  0.0000E+00  0.0000E+00
   4.028s  1.0833E+04  1.4765E+02  5.4943E+03  1.0989E+04  9.0000E+01  9.0000E+01  9.0000E+01  0.0000E+00  2.7045E+00

  rolling -1.5492E+04  3.3603E+02 -1.7629E+04  5.7689E+03 -2.8558E+04  0.0000E+00  0.0000E+00  0.0000E+00  0.0000E+00
 averages -1.3024E+04  1.5665E+02 -4.1269E+03 -9.9867E+04  2.8068E+04  0.0000E+00  0.0000E+00  0.0000E+00  0.0000E+00
           1.0833E+04  1.3062E+02  5.1602E+03  1.0320E+04  9.0000E+01  9.0000E+01  9.0000E+01  0.0000E+00  3.7342E+00
 ------------------------------------------------------------------------------------------------------------------------
      285 -1.5445E+04  3.6194E+02 -1.7747E+04  5.6467E+03 -2.8871E+04  0.0000E+00  0.0000E+00  0.0000E+00  0.0000E+00
 142.500f -1.3768E+04  1.5201E+02 -1.3928E+03 -9.8163E+04  2.8399E+04  0.0000E+00  0.0000E+00  0.0000E+00  0.0000E+00
   4.097s  1.0833E+04  1.5132E+02  5.4773E+03  1.0955E+04  9.0000E+01  9.0000E+01  9.0000E+01  0.0000E+00  2.5365E+00

  rolling -1.5489E+04  3.3868E+02 -1.7643E+04  5.7755E+03 -2.8615E+04  0.0000E+00  0.0000E+00  0.0000E+00  0.0000E+00
 averages -1.3056E+04  1.5709E+02 -3.9909E+03 -9.9938E+04  2.8123E+04  0.0000E+00  0.0000E+00  0.0000E+00  0.0000E+00
           1.0833E+04  1.3194E+02  5.1964E+03  1.0393E+04  9.0000E+01  9.0000E+01  9.0000E+01  0.0000E+00  3.6812E+00
 ------------------------------------------------------------------------------------------------------------------------
      290 -1.5446E+04  3.6195E+02 -1.7748E+04  5.6305E+03 -2.8835E+04  0.0000E+00  0.0000E+00  0.0000E+00  0.0000E+00
 145.000f -1.3759E+04  1.5119E+02 -1.4176E+03 -9.7962E+04  2.8361E+04  0.0000E+00  0.0000E+00  0.0000E+00  0.0000E+00
   4.163s  1.0833E+04  1.4625E+02  5.4560E+03  1.0912E+04  9.0000E+01  9.0000E+01  9.0000E+01  0.0000E+00  2.5517E+00

  rolling -1.5486E+04  3.4136E+02 -1.7658E+04  5.7773E+03 -2.8668E+04  0.0000E+00  0.0000E+00  0.0000E+00  0.0000E+00
 averages -1.3101E+04  1.5758E+02 -3.8150E+03 -9.9948E+04  2.8174E+04  0.0000E+00  0.0000E+00  0.0000E+00  0.0000E+00
           1.0833E+04  1.3320E+02  5.2328E+03  1.0466E+04  9.0000E+01  9.0000E+01  9.0000E+01  0.0000E+00  3.6081E+00
 ------------------------------------------------------------------------------------------------------------------------
      295 -1.5448E+04  3.6178E+02 -1.7749E+04  5.6257E+03 -2.8803E+04  0.0000E+00  0.0000E+00  0.0000E+00  0.0000E+00
 147.500f -1.3719E+04  1.5409E+02 -1.5651E+03 -9.7906E+04  2.8346E+04  0.0000E+00  0.0000E+00  0.0000E+00  0.0000E+00
   4.228s  1.0833E+04  1.3900E+02  5.4283E+03  1.0857E+04  9.0000E+01  9.0000E+01  9.0000E+01  0.0000E+00  2.6157E+00

  rolling -1.5484E+04  3.4396E+02 -1.7672E+04  5.7749E+03 -2.8714E+04  0.0000E+00  0.0000E+00  0.0000E+00  0.0000E+00
 averages -1.3156E+04  1.5813E+02 -3.6138E+03 -9.9903E+04  2.8220E+04  0.0000E+00  0.0000E+00  0.0000E+00  0.0000E+00
           1.0833E+04  1.3422E+02  5.2677E+03  1.0535E+04  9.0000E+01  9.0000E+01  9.0000E+01  0.0000E+00  3.5215E+00
 ------------------------------------------------------------------------------------------------------------------------
      300 -1.5448E+04  3.6575E+02 -1.7775E+04  5.5953E+03 -2.8762E+04  0.0000E+00  0.0000E+00  0.0000E+00  0.0000E+00
 150.000f -1.3761E+04  1.6006E+02 -1.4259E+03 -9.7523E+04  2.8306E+04  0.0000E+00  0.0000E+00  0.0000E+00  0.0000E+00
   4.291s  1.0833E+04  1.3806E+02  5.3919E+03  1.0784E+04  9.0000E+01  9.0000E+01  9.0000E+01  0.0000E+00  2.5518E+00

  rolling -1.5481E+04  3.4652E+02 -1.7685E+04  5.7677E+03 -2.8752E+04  0.0000E+00  0.0000E+00  0.0000E+00  0.0000E+00
 averages -1.3218E+04  1.5875E+02 -3.3904E+03 -9.9799E+04  2.8257E+04  0.0000E+00  0.0000E+00  0.0000E+00  0.0000E+00
           1.0833E+04  1.3514E+02  5.2990E+03  1.0598E+04  9.0000E+01  9.0000E+01  9.0000E+01  0.0000E+00  3.4233E+00
 ------------------------------------------------------------------------------------------------------------------------
      305 -1.5436E+04  3.7259E+02 -1.7806E+04  5.5389E+03 -2.8696E+04  0.0000E+00  0.0000E+00  0.0000E+00  0.0000E+00
 152.500f -1.3882E+04  1.6703E+02 -9.8487E+02 -9.6793E+04  2.8240E+04  0.0000E+00  0.0000E+00  0.0000E+00  0.0000E+00
   4.353s  1.0833E+04  1.4212E+02  5.3518E+03  1.0704E+04  9.0000E+01  9.0000E+01  9.0000E+01  0.0000E+00  2.3510E+00

  rolling -1.5477E+04  3.4914E+02 -1.7698E+04  5.7547E+03 -2.8778E+04  0.0000E+00  0.0000E+00  0.0000E+00  0.0000E+00
 averages -1.3289E+04  1.5942E+02 -3.1385E+03 -9.9620E+04  2.8285E+04  0.0000E+00  0.0000E+00  0.0000E+00  0.0000E+00
           1.0833E+04  1.3614E+02  5.3253E+03  1.0651E+04  9.0000E+01  9.0000E+01  9.0000E+01  0.0000E+00  3.3110E+00
 ------------------------------------------------------------------------------------------------------------------------
      310 -1.5430E+04  3.7798E+02 -1.7834E+04  5.4789E+03 -2.8631E+04  0.0000E+00  0.0000E+00  0.0000E+00  0.0000E+00
 155.000f -1.4044E+04  1.7243E+02 -4.4524E+02 -9.5997E+04  2.8173E+04  0.0000E+00  0.0000E+00  0.0000E+00  0.0000E+00
   4.416s  1.0833E+04  1.4614E+02  5.3181E+03  1.0636E+04  9.0000E+01  9.0000E+01  9.0000E+01  0.0000E+00  2.0961E+00

  rolling -1.5473E+04  3.5177E+02 -1.7711E+04  5.7360E+03 -2.8793E+04  0.0000E+00  0.0000E+00  0.0000E+00  0.0000E+00
 averages -1.3368E+04  1.6012E+02 -2.8601E+03 -9.9369E+04  2.8302E+04  0.0000E+00  0.0000E+00  0.0000E+00  0.0000E+00
           1.0833E+04  1.3718E+02  5.3458E+03  1.0692E+04  9.0000E+01  9.0000E+01  9.0000E+01  0.0000E+00  3.1851E+00
 ------------------------------------------------------------------------------------------------------------------------
      315 -1.5432E+04  3.7991E+02 -1.7849E+04  5.4183E+03 -2.8567E+04  0.0000E+00  0.0000E+00  0.0000E+00  0.0000E+00
 157.500f -1.4241E+04  1.7405E+02  1.5272E+02 -9.5186E+04  2.8113E+04  0.0000E+00  0.0000E+00  0.0000E+00  0.0000E+00
   4.482s  1.0833E+04  1.4907E+02  5.3003E+03  1.0601E+04  9.0000E+01  9.0000E+01  9.0000E+01  0.0000E+00  1.8018E+00

  rolling -1.5469E+04  3.5430E+02 -1.7723E+04  5.7132E+03 -2.8797E+04  0.0000E+00  0.0000E+00  0.0000E+00  0.0000E+00
 averages -1.3453E+04  1.6084E+02 -2.5655E+03 -9.9065E+04  2.8309E+04  0.0000E+00  0.0000E+00  0.0000E+00  0.0000E+00
           1.0833E+04  1.3819E+02  5.3608E+03  1.0722E+04  9.0000E+01  9.0000E+01  9.0000E+01  0.0000E+00  3.0506E+00
 ------------------------------------------------------------------------------------------------------------------------
 ------------------------------------------------------------------------------------------------------------------------

     step     eng_tot    temp_tot     eng_cfg     eng_vdw     eng_cou     eng_bnd     eng_ang     eng_dih     eng_tet
 time          eng_pv    temp_rot     vir_cfg     vir_vdw     vir_cou     vir_bnd     vir_ang     vir_con     vir_tet
 cpu time      volume    temp_shl     eng_shl     vir_shl       alpha        beta       gamma     vir_pmf       press

 ------------------------------------------------------------------------------------------------------------------------
      320 -1.5431E+04  3.7774E+02 -1.7834E+04  5.3606E+03 -2.8499E+04  0.0000E+00  0.0000E+00  0.0000E+00  0.0000E+00
 160.000f -1.4436E+04  1.7161E+02  7.2778E+02 -9.4410E+04  2.8041E+04  0.0000E+00  0.0000E+00  0.0000E+00  0.0000E+00
   4.543s  1.0833E+04  1.4916E+02  5.3045E+03  1.0609E+04  9.0000E+01  9.0000E+01  9.0000E+01  0.0000E+00  1.5057E+00

  rolling -1.5466E+04  3.5662E+02 -1.7734E+04  5.6879E+03 -2.8793E+04  0.0000E+00  0.0000E+00  0.0000E+00  0.0000E+00
 averages -1.3540E+04  1.6153E+02 -2.2683E+03 -9.8729E+04  2.8309E+04  0.0000E+00  0.0000E+00  0.0000E+00  0.0000E+00
           1.0833E+04  1.3911E+02  5.3714E+03  1.0743E+04  9.0000E+01  9.0000E+01  9.0000E+01  0.0000E+00  2.9134E+00
 ------------------------------------------------------------------------------------------------------------------------
      325 -1.5431E+04  3.7148E+02 -1.7794E+04  5.3220E+03 -2.8447E+04  0.0000E+00  0.0000E+00  0.0000E+00  0.0000E+00
 162.500f -1.4585E+04  1.6699E+02  1.1231E+03 -9.3885E+04  2.7984E+04  0.0000E+00  0.0000E+00  0.0000E+00  0.0000E+00
   4.607s  1.0833E+04  1.4433E+02  5.3308E+03  1.0662E+04  9.0000E+01  9.0000E+01  9.0000E+01  0.0000E+00  1.2810E+00

  rolling -1.5462E+04  3.5862E+02 -1.7743E+04  5.6621E+03 -2.8784E+04  0.0000E+00  0.0000E+00  0.0000E+00  0.0000E+00
 averages -1.3625E+04  1.6214E+02 -1.9815E+03 -9.8386E+04  2.8303E+04  0.0000E+00  0.0000E+00  0.0000E+00  0.0000E+00
           1.0833E+04  1.3986E+02  5.3791E+03  1.0758E+04  9.0000E+01  9.0000E+01  9.0000E+01  0.0000E+00  2.7796E+00
 ------------------------------------------------------------------------------------------------------------------------
      330 -1.5428E+04  3.6458E+02 -1.7747E+04  5.3084E+03 -2.8425E+04  0.0000E+00  0.0000E+00  0.0000E+00  0.0000E+00
 165.000f -1.4657E+04  1.6309E+02  1.2877E+03 -9.3684E+04  2.7958E+04  0.0000E+00  0.0000E+00  0.0000E+00  0.0000E+00
   4.668s  1.0833E+04  1.3857E+02  5.3702E+03  1.0740E+04  9.0000E+01  9.0000E+01  9.0000E+01  0.0000E+00  1.1662E+00

  rolling -1.5458E+04  3.6019E+02 -1.7749E+04  5.6371E+03 -2.8772E+04  0.0000E+00  0.0000E+00  0.0000E+00  0.0000E+00
 averages -1.3704E+04  1.6261E+02 -1.7143E+03 -9.8053E+04  2.8293E+04  0.0000E+00  0.0000E+00  0.0000E+00  0.0000E+00
           1.0833E+04  1.4038E+02  5.3856E+03  1.0771E+04  9.0000E+01  9.0000E+01  9.0000E+01  0.0000E+00  2.6534E+00
 ------------------------------------------------------------------------------------------------------------------------
      335 -1.5425E+04  3.6145E+02 -1.7725E+04  5.3097E+03 -2.8444E+04  0.0000E+00  0.0000E+00  0.0000E+00  0.0000E+00
 167.500f -1.4689E+04  1.6219E+02  1.3579E+03 -9.3678E+04  2.7976E+04  0.0000E+00  0.0000E+00  0.0000E+00  0.0000E+00
   4.729s  1.0833E+04  1.3729E+02  5.4102E+03  1.0820E+04  9.0000E+01  9.0000E+01  9.0000E+01  0.0000E+00  1.1137E+00

  rolling -1.5454E+04  3.6137E+02 -1.7753E+04  5.6137E+03 -2.8759E+04  0.0000E+00  0.0000E+00  0.0000E+00  0.0000E+00
 averages -1.3778E+04  1.6293E+02 -1.4690E+03 -9.7740E+04  2.8283E+04  0.0000E+00  0.0000E+00  0.0000E+00  0.0000E+00
           1.0833E+04  1.4075E+02  5.3921E+03  1.0784E+04  9.0000E+01  9.0000E+01  9.0000E+01  0.0000E+00  2.5363E+00
 ------------------------------------------------------------------------------------------------------------------------
      340 -1.5402E+04  3.6227E+02 -1.7707E+04  5.3233E+03 -2.8472E+04  0.0000E+00  0.0000E+00  0.0000E+00  0.0000E+00
 170.000f -1.4650E+04  1.6483E+02  1.3041E+03 -9.3835E+04  2.8025E+04  0.0000E+00  0.0000E+00  0.0000E+00  0.0000E+00
   4.795s  1.0833E+04  1.3970E+02  5.4425E+03  1.0885E+04  9.0000E+01  9.0000E+01  9.0000E+01  0.0000E+00  1.1376E+00

  rolling -1.5450E+04  3.6229E+02 -1.7755E+04  5.5920E+03 -2.8746E+04  0.0000E+00  0.0000E+00  0.0000E+00  0.0000E+00
 averages -1.3845E+04  1.6317E+02 -1.2438E+03 -9.7449E+04  2.8272E+04  0.0000E+00  0.0000E+00  0.0000E+00  0.0000E+00
           1.0833E+04  1.4108E+02  5.3991E+03  1.0798E+04  9.0000E+01  9.0000E+01  9.0000E+01  0.0000E+00  2.4278E+00
 ------------------------------------------------------------------------------------------------------------------------
      345 -1.5399E+04  3.6488E+02 -1.7720E+04  5.3424E+03 -2.8526E+04  0.0000E+00  0.0000E+00  0.0000E+00  0.0000E+00
 172.500f -1.4617E+04  1.6989E+02  1.2150E+03 -9.4067E+04  2.8091E+04  0.0000E+00  0.0000E+00  0.0000E+00  0.0000E+00
   4.856s  1.0833E+04  1.4338E+02  5.4640E+03  1.0928E+04  9.0000E+01  9.0000E+01  9.0000E+01  0.0000E+00  1.1830E+00

  rolling -1.5446E+04  3.6306E+02 -1.7755E+04  5.5719E+03 -2.8733E+04  0.0000E+00  0.0000E+00  0.0000E+00  0.0000E+00
 averages -1.3907E+04  1.6343E+02 -1.0356E+03 -9.7177E+04  2.8263E+04  0.0000E+00  0.0000E+00  0.0000E+00  0.0000E+00
           1.0833E+04  1.4143E+02  5.4062E+03  1.0812E+04  9.0000E+01  9.0000E+01  9.0000E+01  0.0000E+00  2.3269E+00
 ------------------------------------------------------------------------------------------------------------------------
      350 -1.5398E+04  3.6862E+02 -1.7742E+04  5.3516E+03 -2.8570E+04  0.0000E+00  0.0000E+00  0.0000E+00  0.0000E+00
 175.000f -1.4616E+04  1.7571E+02  1.2267E+03 -9.4177E+04  2.8152E+04  0.0000E+00  0.0000E+00  0.0000E+00  0.0000E+00
   4.919s  1.0833E+04  1.4865E+02  5.4761E+03  1.0952E+04  9.0000E+01  9.0000E+01  9.0000E+01  0.0000E+00  1.1825E+00

  rolling -1.5441E+04  3.6379E+02 -1.7755E+04  5.5524E+03 -2.8720E+04  0.0000E+00  0.0000E+00  0.0000E+00  0.0000E+00
 averages -1.3968E+04  1.6383E+02 -8.3326E+02 -9.6912E+04  2.8255E+04  0.0000E+00  0.0000E+00  0.0000E+00  0.0000E+00
           1.0833E+04  1.4188E+02  5.4128E+03  1.0826E+04  9.0000E+01  9.0000E+01  9.0000E+01  0.0000E+00  2.2283E+00
 ------------------------------------------------------------------------------------------------------------------------
      355 -1.5395E+04  3.7144E+02 -1.7757E+04  5.3518E+03 -2.8593E+04  0.0000E+00  0.0000E+00  0.0000E+00  0.0000E+00
 177.500f -1.4640E+04  1.8060E+02  1.3126E+03 -9.4171E+04  2.8193E+04  0.0000E+00  0.0000E+00  0.0000E+00  0.0000E+00
   4.981s  1.0833E+04  1.5276E+02  5.4835E+03  1.0967E+04  9.0000E+01  9.0000E+01  9.0000E+01  0.0000E+00  1.1416E+00

  rolling -1.5437E+04  3.6455E+02 -1.7756E+04  5.5321E+03 -2.8706E+04  0.0000E+00  0.0000E+00  0.0000E+00  0.0000E+00
 averages -1.4031E+04  1.6443E+02 -6.2515E+02 -9.6638E+04  2.8246E+04  0.0000E+00  0.0000E+00  0.0000E+00  0.0000E+00
           1.0833E+04  1.4247E+02  5.4182E+03  1.0836E+04  9.0000E+01  9.0000E+01  9.0000E+01  0.0000E+00  2.1264E+00
 ------------------------------------------------------------------------------------------------------------------------
 ------------------------------------------------------------------------------------------------------------------------

     step     eng_tot    temp_tot     eng_cfg     eng_vdw     eng_cou     eng_bnd     eng_ang     eng_dih     eng_tet
 time          eng_pv    temp_rot     vir_cfg     vir_vdw     vir_cou     vir_bnd     vir_ang     vir_con     vir_tet
 cpu time      volume    temp_shl     eng_shl     vir_shl       alpha        beta       gamma     vir_pmf       press

 ------------------------------------------------------------------------------------------------------------------------
      360 -1.5394E+04  3.7156E+02 -1.7757E+04  5.3422E+03 -2.8589E+04  0.0000E+00  0.0000E+00  0.0000E+00  0.0000E+00
 180.000f -1.4690E+04  1.8210E+02  1.4578E+03 -9.4033E+04  2.8202E+04  0.0000E+00  0.0000E+00  0.0000E+00  0.0000E+00
   5.041s  1.0833E+04  1.5467E+02  5.4894E+03  1.0979E+04  9.0000E+01  9.0000E+01  9.0000E+01  0.0000E+00  1.0643E+00

  rolling -1.5432E+04  3.6532E+02 -1.7756E+04  5.5105E+03 -2.8688E+04  0.0000E+00  0.0000E+00  0.0000E+00  0.0000E+00
 averages -1.4097E+04  1.6517E+02 -4.0789E+02 -9.6346E+04  2.8235E+04  0.0000E+00  0.0000E+00  0.0000E+00  0.0000E+00
           1.0833E+04  1.4320E+02  5.4219E+03  1.0844E+04  9.0000E+01  9.0000E+01  9.0000E+01  0.0000E+00  2.0193E+00
 ------------------------------------------------------------------------------------------------------------------------
      365 -1.5391E+04  3.6808E+02 -1.7732E+04  5.3176E+03 -2.8543E+04  0.0000E+00  0.0000E+00  0.0000E+00  0.0000E+00
 182.500f -1.4763E+04  1.7847E+02  1.6650E+03 -9.3701E+04  2.8159E+04  0.0000E+00  0.0000E+00  0.0000E+00  0.0000E+00
   5.114s  1.0833E+04  1.5296E+02  5.4939E+03  1.0988E+04  9.0000E+01  9.0000E+01  9.0000E+01  0.0000E+00  9.4916E-01

  rolling -1.5429E+04  3.6606E+02 -1.7757E+04  5.4867E+03 -2.8668E+04  0.0000E+00  0.0000E+00  0.0000E+00  0.0000E+00
 averages -1.4169E+04  1.6589E+02 -1.7694E+02 -9.6028E+04  2.8218E+04  0.0000E+00  0.0000E+00  0.0000E+00  0.0000E+00
           1.0833E+04  1.4410E+02  5.4238E+03  1.0848E+04  9.0000E+01  9.0000E+01  9.0000E+01  0.0000E+00  1.9053E+00
 ------------------------------------------------------------------------------------------------------------------------
      370 -1.5405E+04  3.6073E+02 -1.7699E+04  5.2866E+03 -2.8479E+04  0.0000E+00  0.0000E+00  0.0000E+00  0.0000E+00
 185.000f -1.4849E+04  1.7091E+02  1.8332E+03 -9.3288E+04  2.8062E+04  0.0000E+00  0.0000E+00  0.0000E+00  0.0000E+00
   5.180s  1.0833E+04  1.4630E+02  5.4929E+03  1.0986E+04  9.0000E+01  9.0000E+01  9.0000E+01  0.0000E+00  8.4138E-01

  rolling -1.5426E+04  3.6667E+02 -1.7758E+04  5.4610E+03 -2.8643E+04  0.0000E+00  0.0000E+00  0.0000E+00  0.0000E+00
 averages -1.4245E+04  1.6642E+02  6.4407E+01 -9.5685E+04  2.8197E+04  0.0000E+00  0.0000E+00  0.0000E+00  0.0000E+00
           1.0833E+04  1.4499E+02  5.4241E+03  1.0848E+04  9.0000E+01  9.0000E+01  9.0000E+01  0.0000E+00  1.7858E+00
 ------------------------------------------------------------------------------------------------------------------------
      375 -1.5404E+04  3.5421E+02 -1.7657E+04  5.2523E+03 -2.8390E+04  0.0000E+00  0.0000E+00  0.0000E+00  0.0000E+00
 187.500f -1.4905E+04  1.6438E+02  1.9635E+03 -9.2833E+04  2.7959E+04  0.0000E+00  0.0000E+00  0.0000E+00  0.0000E+00
   5.241s  1.0833E+04  1.4080E+02  5.4800E+03  1.0960E+04  9.0000E+01  9.0000E+01  9.0000E+01  0.0000E+00  7.5480E-01

  rolling -1.5423E+04  3.6690E+02 -1.7757E+04  5.4350E+03 -2.8615E+04  0.0000E+00  0.0000E+00  0.0000E+00  0.0000E+00
 averages -1.4319E+04  1.6674E+02  2.9498E+02 -9.5339E+04  2.8171E+04  0.0000E+00  0.0000E+00  0.0000E+00  0.0000E+00
           1.0833E+04  1.4540E+02  5.4233E+03  1.0847E+04  9.0000E+01  9.0000E+01  9.0000E+01  0.0000E+00  1.6700E+00
 ------------------------------------------------------------------------------------------------------------------------
      380 -1.5406E+04  3.5384E+02 -1.7656E+04  5.2090E+03 -2.8318E+04  0.0000E+00  0.0000E+00  0.0000E+00  0.0000E+00
 190.000f -1.4985E+04  1.6300E+02  2.2019E+03 -9.2266E+04  2.7866E+04  0.0000E+00  0.0000E+00  0.0000E+00  0.0000E+00
   5.304s  1.0833E+04  1.4349E+02  5.4523E+03  1.0905E+04  9.0000E+01  9.0000E+01  9.0000E+01  0.0000E+00  6.3670E-01

  rolling -1.5421E+04  3.6674E+02 -1.7753E+04  5.4102E+03 -2.8585E+04  0.0000E+00  0.0000E+00  0.0000E+00  0.0000E+00
 averages -1.4387E+04  1.6706E+02  5.0224E+02 -9.5007E+04  2.8142E+04  0.0000E+00  0.0000E+00  0.0000E+00  0.0000E+00
           1.0833E+04  1.4529E+02  5.4216E+03  1.0843E+04  9.0000E+01  9.0000E+01  9.0000E+01  0.0000E+00  1.5635E+00
 ------------------------------------------------------------------------------------------------------------------------
      385 -1.5405E+04  3.5872E+02 -1.7687E+04  5.1635E+03 -2.8269E+04  0.0000E+00  0.0000E+00  0.0000E+00  0.0000E+00
 192.500f -1.5071E+04  1.6575E+02  2.5053E+03 -9.1667E+04  2.7793E+04  0.0000E+00  0.0000E+00  0.0000E+00  0.0000E+00
   5.365s  1.0833E+04  1.5300E+02  5.4181E+03  1.0836E+04  9.0000E+01  9.0000E+01  9.0000E+01  0.0000E+00  5.0617E-01

  rolling -1.5419E+04  3.6653E+02 -1.7750E+04  5.3861E+03 -2.8555E+04  0.0000E+00  0.0000E+00  0.0000E+00  0.0000E+00
 averages -1.4452E+04  1.6762E+02  6.9729E+02 -9.4683E+04  2.8112E+04  0.0000E+00  0.0000E+00  0.0000E+00  0.0000E+00
           1.0833E+04  1.4521E+02  5.4190E+03  1.0838E+04  9.0000E+01  9.0000E+01  9.0000E+01  0.0000E+00  1.4619E+00
 ------------------------------------------------------------------------------------------------------------------------
      390 -1.5401E+04  3.6109E+02 -1.7698E+04  5.1413E+03 -2.8233E+04  0.0000E+00  0.0000E+00  0.0000E+00  0.0000E+00
 195.000f -1.5080E+04  1.6797E+02  2.5612E+03 -9.1358E+04  2.7732E+04  0.0000E+00  0.0000E+00  0.0000E+00  0.0000E+00
   5.426s  1.0833E+04  1.5832E+02  5.3934E+03  1.0787E+04  9.0000E+01  9.0000E+01  9.0000E+01  0.0000E+00  4.8609E-01

  rolling -1.5416E+04  3.6645E+02 -1.7747E+04  5.3617E+03 -2.8525E+04  0.0000E+00  0.0000E+00  0.0000E+00  0.0000E+00
 averages -1.4518E+04  1.6842E+02  8.9462E+02 -9.4355E+04  2.8081E+04  0.0000E+00  0.0000E+00  0.0000E+00  0.0000E+00
           1.0833E+04  1.4561E+02  5.4158E+03  1.0832E+04  9.0000E+01  9.0000E+01  9.0000E+01  0.0000E+00  1.3594E+00
 ------------------------------------------------------------------------------------------------------------------------
      395 -1.5402E+04  3.5697E+02 -1.7673E+04  5.1487E+03 -2.8212E+04  0.0000E+00  0.0000E+00  0.0000E+00  0.0000E+00
 197.500f -1.5019E+04  1.6677E+02  2.3314E+03 -9.1422E+04  2.7690E+04  0.0000E+00  0.0000E+00  0.0000E+00  0.0000E+00
   5.487s  1.0833E+04  1.5503E+02  5.3906E+03  1.0781E+04  9.0000E+01  9.0000E+01  9.0000E+01  0.0000E+00  5.7937E-01

[...]
   -7.3500  2.261484E-01  6.238400E+01
   -7.2500  2.496240E-01  6.557400E+01
   -7.1500  2.444594E-01  6.869800E+01
   -7.0500  1.781017E-01  7.097400E+01
   -6.9500  1.751281E-01  7.321200E+01
   -6.8500  2.320956E-01  7.617800E+01
   -6.7500  2.053334E-01  7.880200E+01
   -6.6500  2.014208E-01  8.137600E+01
   -6.5500  3.001748E-01  8.521200E+01
   -6.4500  2.302175E-01  8.815400E+01
   -6.3500  2.560407E-01  9.142600E+01
   -6.2500  1.998557E-01  9.398000E+01
   -6.1500  2.269309E-01  9.688000E+01
   -6.0500  2.430508E-01  9.998600E+01
   -5.9500  2.158191E-01  1.027440E+02
   -5.8500  1.815447E-01  1.050640E+02
   -5.7500  1.719980E-01  1.072620E+02
   -5.6500  2.169147E-01  1.100340E+02
   -5.5500  1.771626E-01  1.122980E+02
   -5.4500  1.760671E-01  1.145480E+02
   -5.3500  2.131586E-01  1.172720E+02
   -5.2500  2.954797E-01  1.210480E+02
   -5.1500  1.835793E-01  1.233940E+02
   -5.0500  1.917175E-01  1.258440E+02
   -4.9500  1.478964E-01  1.277340E+02
   -4.8500  1.477399E-01  1.296220E+02
   -4.7500  2.352256E-01  1.326280E+02
   -4.6500  1.970386E-01  1.351460E+02
   -4.5500  1.741890E-01  1.373720E+02
   -4.4500  1.932825E-01  1.398420E+02
   -4.3500  2.115935E-01  1.425460E+02
   -4.2500  1.594777E-01  1.445840E+02
   -4.1500  1.953171E-01  1.470800E+02
   -4.0500  1.956301E-01  1.495800E+02
   -3.9500  2.525976E-01  1.528080E+02
   -3.8500  2.591708E-01  1.561200E+02
   -3.7500  2.832724E-01  1.597400E+02
   -3.6500  2.853070E-01  1.633860E+02
   -3.5500  2.064289E-01  1.660240E+02
   -3.4500  1.550956E-01  1.680060E+02
   -3.3500  2.194187E-01  1.708100E+02
   -3.2500  2.959492E-01  1.745920E+02
   -3.1500  2.189492E-01  1.773900E+02
   -3.0500  2.497805E-01  1.805820E+02
   -2.9500  1.903090E-01  1.830140E+02
   -2.8500  1.228557E-01  1.845840E+02
   -2.7500  1.330285E-01  1.862840E+02
   -2.6500  1.629208E-01  1.883660E+02
   -2.5500  1.868659E-01  1.907540E+02
   -2.4500  1.957866E-01  1.932560E+02
   -2.3500  2.665265E-01  1.966620E+02
   -2.2500  2.638659E-01  2.000340E+02
   -2.1500  2.604228E-01  2.033620E+02
   -2.0500  2.076809E-01  2.060160E+02
   -1.9500  1.732500E-01  2.082300E+02
   -1.8500  1.489919E-01  2.101340E+02
   -1.7500  1.848313E-01  2.124960E+02
   -1.6500  1.893699E-01  2.149160E+02
   -1.5500  1.544695E-01  2.168900E+02
   -1.4500  1.971952E-01  2.194100E+02
   -1.3500  1.967256E-01  2.219240E+02
   -1.2500  1.798232E-01  2.242220E+02
   -1.1500  1.144045E-01  2.256840E+02
   -1.0500  1.413232E-01  2.274900E+02
   -0.9500  1.172216E-01  2.289880E+02
   -0.8500  1.755976E-01  2.312320E+02
   -0.7500  1.588516E-01  2.332620E+02
   -0.6500  1.381931E-01  2.350280E+02
   -0.5500  2.206708E-01  2.378480E+02
   -0.4500  3.026789E-01  2.417160E+02
   -0.3500  3.045570E-01  2.456080E+02
   -0.2500  3.361708E-01  2.499040E+02
   -0.1500  3.926688E-01  2.549220E+02
   -0.0500  3.516647E-01  2.594160E+02
    0.0500  2.826464E-01  2.630280E+02
    0.1500  1.884309E-01  2.654360E+02
    0.2500  1.857704E-01  2.678100E+02
    0.3500  1.444533E-01  2.696560E+02
    0.4500  1.629208E-01  2.717380E+02
    0.5500  1.694939E-01  2.739040E+02
    0.6500  1.349065E-01  2.756280E+02
    0.7500  1.242642E-01  2.772160E+02
    0.8500  1.494614E-01  2.791260E+02
    0.9500  1.699634E-01  2.812980E+02
    1.0500  2.355387E-01  2.843080E+02
    1.1500  1.818577E-01  2.866320E+02
    1.2500  1.929695E-01  2.890980E+02
    1.3500  1.709025E-01  2.912820E+02
    1.4500  1.914045E-01  2.937280E+02
    1.5500  2.227053E-01  2.965740E+02
    1.6500  2.004817E-01  2.991360E+02
    1.7500  2.402338E-01  3.022060E+02
    1.8500  3.039309E-01  3.060900E+02
    1.9500  2.651179E-01  3.094780E+02
    2.0500  1.801362E-01  3.117800E+02
    2.1500  1.699634E-01  3.139520E+02
    2.2500  2.408598E-01  3.170300E+02
    2.3500  2.202013E-01  3.198440E+02
    2.4500  1.914045E-01  3.222900E+02
    2.5500  2.047073E-01  3.249060E+02
    2.6500  1.884309E-01  3.273140E+02
    2.7500  1.726240E-01  3.295200E+02
    2.8500  1.871789E-01  3.319120E+02
    2.9500  2.162886E-01  3.346760E+02
    3.0500  1.599472E-01  3.367200E+02
    3.1500  2.280265E-01  3.396340E+02
    3.2500  2.079939E-01  3.422920E+02
    3.3500  2.982968E-01  3.461040E+02
    3.4500  2.428943E-01  3.492080E+02
    3.5500  2.184797E-01  3.520000E+02
    3.6500  1.673029E-01  3.541380E+02
    3.7500  1.369411E-01  3.558880E+02
    3.8500  1.400712E-01  3.576780E+02
    3.9500  1.389756E-01  3.594540E+02
    4.0500  1.594777E-01  3.614920E+02
    4.1500  1.774756E-01  3.637600E+02
    4.2500  1.363151E-01  3.655020E+02
    4.3500  1.935956E-01  3.679760E+02
    4.4500  1.970386E-01  3.704940E+02
    4.5500  2.275569E-01  3.734020E+02
    4.6500  1.752846E-01  3.756420E+02
    4.7500  1.436708E-01  3.774780E+02
    4.8500  1.599472E-01  3.795220E+02
    4.9500  1.688679E-01  3.816800E+02
    5.0500  1.971952E-01  3.842000E+02
    5.1500  2.432074E-01  3.873080E+02
    5.2500  2.086199E-01  3.899740E+02
    5.3500  2.455549E-01  3.931120E+02
    5.4500  2.541626E-01  3.963600E+02
    5.5500  1.878049E-01  3.987600E+02
    5.6500  2.377297E-01  4.017980E+02
    5.7500  2.862460E-01  4.054560E+02
    5.8500  2.615183E-01  4.087980E+02
    5.9500  2.950102E-01  4.125680E+02
    6.0500  1.918740E-01  4.150200E+02
    6.1500  1.389756E-01  4.167960E+02
    6.2500  1.452358E-01  4.186520E+02
    6.3500  1.522785E-01  4.205980E+02
    6.4500  1.646423E-01  4.227020E+02
    6.5500  1.242642E-01  4.242900E+02
    6.6500  1.685549E-01  4.264440E+02
    6.7500  2.381992E-01  4.294880E+02
    6.8500  2.313130E-01  4.324440E+02
    6.9500  2.299045E-01  4.353820E+02
    7.0500  2.233313E-01  4.382360E+02
    7.1500  1.226992E-01  4.398040E+02
    7.2500  1.838923E-01  4.421540E+02
    7.3500  1.546260E-01  4.441300E+02
    7.4500  1.831098E-01  4.464700E+02
    7.5500  2.026728E-01  4.490600E+02
    7.6500  2.026728E-01  4.516500E+02
    7.7500  1.524350E-01  4.535980E+02
    7.8500  1.721545E-01  4.557980E+02
    7.9500  1.899960E-01  4.582260E+02
    8.0500  1.928130E-01  4.606900E+02
    8.1500  1.817012E-01  4.630120E+02
    8.2500  2.227053E-01  4.658580E+02
    8.3500  1.784147E-01  4.681380E+02
    8.4500  1.946911E-01  4.706260E+02
    8.5500  2.079939E-01  4.732840E+02
    8.6500  1.784147E-01  4.755640E+02
    8.7500  1.954736E-01  4.780620E+02
    8.8500  2.428943E-01  4.811660E+02
    8.9500  3.245895E-01  4.853140E+02
    9.0500  2.970448E-01  4.891100E+02
    9.1500  2.973578E-01  4.929100E+02
    9.2500  2.347561E-01  4.959100E+02
    9.3500  2.239573E-01  4.987720E+02
    9.4500  1.957866E-01  5.012740E+02
    9.5500  1.496179E-01  5.031860E+02
    9.6500  1.477399E-01  5.050740E+02
    9.7500  1.388191E-01  5.068480E+02
    9.8500  9.499798E-02  5.080620E+02
    9.9500  7.355692E-02  5.090020E+02
   10.0500  5.493293E-02  5.097040E+02
   10.1500  4.835976E-02  5.103220E+02
   10.2500  5.900204E-02  5.110760E+02
   10.3500  1.956301E-02  5.113260E+02
   10.4500  5.008131E-03  5.113900E+02
   10.5500  9.859758E-03  5.115160E+02
   10.6500  6.260164E-03  5.115960E+02
   10.7500  3.756098E-03  5.116440E+02
   10.8500  1.001626E-02  5.117720E+02
   10.9500  1.095529E-03  5.117860E+02
   11.0500  1.408537E-03  5.118040E+02
   11.1500  6.416668E-03  5.118860E+02
   11.2500  7.355692E-03  5.119800E+02
   11.3500  1.252033E-03  5.119960E+02
   11.4500  3.130082E-04  5.120000E+02
   11.5500  0.000000E+00  5.120000E+02
   11.6500  0.000000E+00  5.120000E+02
   11.7500  0.000000E+00  5.120000E+02
   11.8500  0.000000E+00  5.120000E+02
   11.9500  0.000000E+00  5.120000E+02
   12.0500  0.000000E+00  5.120000E+02
   12.1500  0.000000E+00  5.120000E+02
   12.2500  0.000000E+00  5.120000E+02
   12.3500  0.000000E+00  5.120000E+02
   12.4500  0.000000E+00  5.120000E+02
   12.5500  0.000000E+00  5.120000E+02
   12.6500  0.000000E+00  5.120000E+02
   12.7500  0.000000E+00  5.120000E+02
   12.8500  0.000000E+00  5.120000E+02
   12.9500  0.000000E+00  5.120000E+02
   13.0500  0.000000E+00  5.120000E+02
   13.1500  0.000000E+00  5.120000E+02
   13.2500  0.000000E+00  5.120000E+02
   13.3500  0.000000E+00  5.120000E+02
   13.4500  0.000000E+00  5.120000E+02
   13.5500  0.000000E+00  5.120000E+02
   13.6500  0.000000E+00  5.120000E+02
   13.7500  0.000000E+00  5.120000E+02
   13.8500  0.000000E+00  5.120000E+02
   13.9500  0.000000E+00  5.120000E+02
   14.0500  0.000000E+00  5.120000E+02
   14.1500  0.000000E+00  5.120000E+02
   14.2500  0.000000E+00  5.120000E+02
   14.3500  0.000000E+00  5.120000E+02
   14.4500  0.000000E+00  5.120000E+02

rho(r)  :O_shell 

        r      rho         n(r)

  -14.4500  0.000000E+00  0.000000E+00
  -14.3500  0.000000E+00  0.000000E+00
  -14.2500  0.000000E+00  0.000000E+00
  -14.1500  0.000000E+00  0.000000E+00
  -14.0500  0.000000E+00  0.000000E+00
  -13.9500  0.000000E+00  0.000000E+00
  -13.8500  0.000000E+00  0.000000E+00
  -13.7500  0.000000E+00  0.000000E+00
  -13.6500  0.000000E+00  0.000000E+00
  -13.5500  0.000000E+00  0.000000E+00
  -13.4500  0.000000E+00  0.000000E+00
  -13.3500  0.000000E+00  0.000000E+00
  -13.2500  0.000000E+00  0.000000E+00
  -13.1500  0.000000E+00  0.000000E+00
  -13.0500  0.000000E+00  0.000000E+00
  -12.9500  0.000000E+00  0.000000E+00
  -12.8500  0.000000E+00  0.000000E+00
  -12.7500  0.000000E+00  0.000000E+00
  -12.6500  0.000000E+00  0.000000E+00
  -12.5500  0.000000E+00  0.000000E+00
  -12.4500  0.000000E+00  0.000000E+00
  -12.3500  0.000000E+00  0.000000E+00
  -12.2500  0.000000E+00  0.000000E+00
  -12.1500  0.000000E+00  0.000000E+00
  -12.0500  0.000000E+00  0.000000E+00
  -11.9500  0.000000E+00  0.000000E+00
  -11.8500  0.000000E+00  0.000000E+00
  -11.7500  0.000000E+00  0.000000E+00
  -11.6500  0.000000E+00  0.000000E+00
  -11.5500  0.000000E+00  0.000000E+00
  -11.4500  0.000000E+00  0.000000E+00
  -11.3500  0.000000E+00  0.000000E+00
  -11.2500  0.000000E+00  0.000000E+00
  -11.1500  0.000000E+00  0.000000E+00
  -11.0500  0.000000E+00  0.000000E+00
  -10.9500  0.000000E+00  0.000000E+00
  -10.8500  0.000000E+00  0.000000E+00
  -10.7500  0.000000E+00  0.000000E+00
  -10.6500  0.000000E+00  0.000000E+00
  -10.5500  2.504065E-03  3.200000E-02
  -10.4500  3.599594E-03  7.800000E-02
  -10.3500  4.069106E-03  1.300000E-01
  -10.2500  5.947155E-03  2.060000E-01
  -10.1500  2.535366E-02  5.300000E-01
  -10.0500  1.643293E-02  7.400000E-01
   -9.9500  2.864025E-02  1.106000E+00
   -9.8500  4.178659E-02  1.640000E+00
   -9.7500  6.886180E-02  2.520000E+00
   -9.6500  6.792277E-02  3.388000E+00
   -9.5500  1.226992E-01  4.956000E+00
   -9.4500  6.338416E-02  5.766000E+00
   -9.3500  9.061587E-02  6.924000E+00
   -9.2500  5.962806E-02  7.686000E+00
   -9.1500  1.086138E-01  9.074000E+00
   -9.0500  1.259858E-01  1.068400E+01
   -8.9500  9.045936E-02  1.184000E+01
   -8.8500  9.108538E-02  1.300400E+01
   -8.7500  5.868903E-02  1.375400E+01
   -8.6500  1.006321E-01  1.504000E+01
   -8.5500  9.859758E-02  1.630000E+01
   -8.4500  1.050142E-01  1.764200E+01
   -8.3500  9.844107E-02  1.890000E+01
   -8.2500  9.405896E-02  2.010200E+01
   -8.1500  8.138213E-02  2.114200E+01
   -8.0500  8.294717E-02  2.220200E+01
   -7.9500  9.280692E-02  2.338800E+01
   -7.8500  9.593701E-02  2.461400E+01
   -7.7500  1.106484E-01  2.602800E+01
   -7.6500  1.364716E-01  2.777200E+01
   -7.5500  8.122562E-02  2.881000E+01
   -7.4500  9.515449E-02  3.002600E+01
   -7.3500  1.181606E-01  3.153600E+01
   -7.2500  7.668700E-02  3.251600E+01
   -7.1500  7.653050E-02  3.349400E+01
   -7.0500  5.446342E-02  3.419000E+01
   -6.9500  7.449595E-02  3.514200E+01
   -6.8500  5.023781E-02  3.578400E+01
   -6.7500  8.607725E-02  3.688400E+01
   -6.6500  1.305244E-01  3.855200E+01
   -6.5500  1.876484E-01  4.095000E+01
   -6.4500  1.081443E-01  4.233200E+01
   -6.3500  1.018842E-01  4.363400E+01
   -6.2500  1.089268E-01  4.502600E+01
   -6.1500  1.538435E-01  4.699200E+01
   -6.0500  1.519655E-01  4.893400E+01
   -5.9500  1.306809E-01  5.060400E+01
   -5.8500  1.328720E-01  5.230200E+01
   -5.7500  1.226992E-01  5.387000E+01
   -5.6500  1.388191E-01  5.564400E+01
   -5.5500  1.045447E-01  5.698000E+01
   -5.4500  8.404270E-02  5.805400E+01
   -5.3500  6.964432E-02  5.894400E+01
   -5.2500  1.051707E-01  6.028800E+01
   -5.1500  1.078313E-01  6.166600E+01
   -5.0500  1.358455E-01  6.340200E+01
   -4.9500  8.576424E-02  6.449800E+01
   -4.8500  7.919107E-02  6.551000E+01
   -4.7500  6.385367E-02  6.632600E+01
   -4.6500  1.020407E-01  6.763000E+01
   -4.5500  9.703253E-02  6.887000E+01
   -4.4500  8.905083E-02  7.000800E+01
   -4.3500  5.493293E-02  7.071000E+01
   -4.2500  6.886180E-02  7.159000E+01
   -4.1500  7.418294E-02  7.253800E+01
   -4.0500  7.887806E-02  7.354600E+01
   -3.9500  7.950408E-02  7.456200E+01
   -3.8500  8.873782E-02  7.569600E+01
   -3.7500  7.371343E-02  7.663800E+01
   -3.6500  8.998985E-02  7.778800E+01
   -3.5500  9.045936E-02  7.894400E+01
   -3.4500  1.286464E-01  8.058800E+01
   -3.3500  1.879614E-01  8.299000E+01
   -3.2500  2.067419E-01  8.563200E+01
   -3.1500  1.126829E-01  8.707200E+01
   -3.0500  1.288029E-01  8.871800E+01
   -2.9500  2.238008E-01  9.157800E+01
   -2.8500  1.527480E-01  9.353000E+01
   -2.7500  1.106484E-01  9.494400E+01
   -2.6500  1.533740E-01  9.690400E+01
   -2.5500  1.139350E-01  9.836000E+01
   -2.4500  1.139350E-01  9.981600E+01
   -2.3500  1.009451E-01  1.011060E+02
   -2.2500  7.934757E-02  1.021200E+02
   -2.1500  4.037805E-02  1.026360E+02
   -2.0500  2.895326E-02  1.030060E+02
   -1.9500  2.394513E-02  1.033120E+02
   -1.8500  8.764229E-03  1.034240E+02
   -1.7500  2.817074E-03  1.034600E+02
   -1.6500  2.112805E-02  1.037300E+02
   -1.5500  7.246139E-02  1.046560E+02
   -1.4500  5.978456E-02  1.054200E+02
   -1.3500  1.375671E-01  1.071780E+02
   -1.2500  1.308374E-01  1.088500E+02
   -1.1500  1.748151E-01  1.110840E+02
   -1.0500  1.669899E-01  1.132180E+02
   -0.9500  1.406972E-01  1.150160E+02
   -0.8500  1.358455E-01  1.167520E+02
   -0.7500  1.366281E-01  1.184980E+02
   -0.6500  1.131525E-01  1.199440E+02
   -0.5500  1.064228E-01  1.213040E+02
   -0.4500  7.042684E-02  1.222040E+02
   -0.3500  8.545123E-02  1.232960E+02
   -0.2500  8.028660E-02  1.243220E+02
   -0.1500  6.322765E-02  1.251300E+02
   -0.0500  9.358944E-02  1.263260E+02
    0.0500  1.342805E-01  1.280420E+02
    0.1500  1.089268E-01  1.294340E+02
    0.2500  1.316199E-01  1.311160E+02
    0.3500  1.139350E-01  1.325720E+02
    0.4500  1.446098E-01  1.344200E+02
    0.5500  1.502439E-01  1.363400E+02
    0.6500  1.156565E-01  1.378180E+02
    0.7500  1.197256E-01  1.393480E+02
    0.8500  1.305244E-01  1.410160E+02
    0.9500  1.197256E-01  1.425460E+02
    1.0500  5.947155E-02  1.433060E+02
    1.1500  6.354066E-02  1.441180E+02
    1.2500  9.452847E-02  1.453260E+02
    1.3500  8.451221E-02  1.464060E+02
    1.4500  5.305489E-02  1.470840E+02
    1.5500  4.131708E-02  1.476120E+02
    1.6500  4.882928E-02  1.482360E+02
    1.7500  4.476017E-02  1.488080E+02
    1.8500  7.966058E-02  1.498260E+02
    1.9500  1.042317E-01  1.511580E+02
    2.0500  1.330285E-01  1.528580E+02
    2.1500  1.521220E-01  1.548020E+02
    2.2500  1.504004E-01  1.567240E+02
    2.3500  1.766931E-01  1.589820E+02
    2.4500  1.358455E-01  1.607180E+02
    2.5500  1.300549E-01  1.623800E+02
    2.6500  1.314634E-01  1.640600E+02
    2.7500  8.028660E-02  1.650860E+02
    2.8500  7.559147E-02  1.660520E+02
    2.9500  9.405896E-02  1.672540E+02
    3.0500  1.369411E-01  1.690040E+02
    3.1500  1.133090E-01  1.704520E+02
    3.2500  8.232115E-02  1.715040E+02
    3.3500  1.403842E-01  1.732980E+02
    3.4500  9.922359E-02  1.745660E+02
    3.5500  7.856505E-02  1.755700E+02
    3.6500  6.541871E-02  1.764060E+02
    3.7500  6.510570E-02  1.772380E+02
    3.8500  6.494920E-02  1.780680E+02
    3.9500  6.354066E-02  1.788800E+02
    4.0500  3.536992E-02  1.793320E+02
    4.1500  6.995733E-02  1.802260E+02
    4.2500  9.405896E-02  1.814280E+02
    4.3500  8.607725E-02  1.825280E+02
    4.4500  8.138213E-02  1.835680E+02
    4.5500  9.045936E-02  1.847240E+02
    4.6500  8.983335E-02  1.858720E+02
    4.7500  1.043882E-01  1.872060E+02
    4.8500  1.178476E-01  1.887120E+02
    4.9500  9.311993E-02  1.899020E+02
    5.0500  1.037622E-01  1.912280E+02
    5.1500  8.685977E-02  1.923380E+02
    5.2500  1.087703E-01  1.937280E+02
    5.3500  1.194126E-01  1.952540E+02
    5.4500  1.180041E-01  1.967620E+02
    5.5500  1.081443E-01  1.981440E+02
    5.6500  1.604167E-01  2.001940E+02
    5.7500  1.366281E-01  2.019400E+02
    5.8500  1.540000E-01  2.039080E+02
    5.9500  1.153435E-01  2.053820E+02
    6.0500  1.059533E-01  2.067360E+02
    6.1500  1.334980E-01  2.084420E+02
    6.2500  1.583821E-01  2.104660E+02
    6.3500  9.671953E-02  2.117020E+02
    6.4500  9.202440E-02  2.128780E+02
    6.5500  8.341668E-02  2.139440E+02
    6.6500  1.014146E-01  2.152400E+02
    6.7500  5.117684E-02  2.158940E+02
    6.8500  4.569919E-02  2.164780E+02
    6.9500  6.009757E-02  2.172460E+02
    7.0500  1.086138E-01  2.186340E+02
    7.1500  9.249392E-02  2.198160E+02
    7.2500  8.545123E-02  2.209080E+02
    7.3500  7.324391E-02  2.218440E+02
    7.4500  5.289838E-02  2.225200E+02
    7.5500  4.194310E-02  2.230560E+02
    7.6500  4.194310E-02  2.235920E+02
    7.7500  4.867277E-02  2.242140E+02
    7.8500  9.265042E-02  2.253980E+02
    7.9500  6.573172E-02  2.262380E+02
    8.0500  9.437196E-02  2.274440E+02
    8.1500  9.515449E-02  2.286600E+02
    8.2500  8.513822E-02  2.297480E+02
    8.3500  9.844107E-02  2.310060E+02
    8.4500  1.787277E-01  2.332900E+02
    8.5500  9.828457E-02  2.345460E+02
    8.6500  1.519655E-01  2.364880E+02
    8.7500  1.525915E-01  2.384380E+02
    8.8500  1.611992E-01  2.404980E+02
    8.9500  1.874919E-01  2.428940E+02
    9.0500  1.483659E-01  2.447900E+02
    9.1500  1.057968E-01  2.461420E+02
    9.2500  1.051707E-01  2.474860E+02
    9.3500  1.439838E-01  2.493260E+02
    9.4500  1.212907E-01  2.508760E+02
    9.5500  7.574798E-02  2.518440E+02
    9.6500  5.008131E-02  2.524840E+02
    9.7500  6.854879E-02  2.533600E+02
    9.8500  3.317887E-02  2.537840E+02
    9.9500  3.239635E-02  2.541980E+02
   10.0500  2.065854E-02  2.544620E+02
   10.1500  3.349187E-02  2.548900E+02
   10.2500  1.768496E-02  2.551160E+02
   10.3500  3.208334E-02  2.555260E+02
   10.4500  1.001626E-02  2.556540E+02
   10.5500  5.477643E-03  2.557240E+02
   10.6500  8.294717E-03  2.558300E+02
   10.7500  3.286586E-03  2.558720E+02
   10.8500  4.069106E-03  2.559240E+02
   10.9500  1.252033E-03  2.559400E+02
   11.0500  1.095529E-03  2.559540E+02
   11.1500  1.721545E-03  2.559760E+02
   11.2500  1.878049E-03  2.560000E+02
   11.3500  0.000000E+00  2.560000E+02
   11.4500  0.000000E+00  2.560000E+02
   11.5500  0.000000E+00  2.560000E+02
   11.6500  0.000000E+00  2.560000E+02
   11.7500  0.000000E+00  2.560000E+02
   11.8500  0.000000E+00  2.560000E+02
   11.9500  0.000000E+00  2.560000E+02
   12.0500  0.000000E+00  2.560000E+02
   12.1500  0.000000E+00  2.560000E+02
   12.2500  0.000000E+00  2.560000E+02
   12.3500  0.000000E+00  2.560000E+02
   12.4500  0.000000E+00  2.560000E+02
   12.5500  0.000000E+00  2.560000E+02
   12.6500  0.000000E+00  2.560000E+02
   12.7500  0.000000E+00  2.560000E+02
   12.8500  0.000000E+00  2.560000E+02
   12.9500  0.000000E+00  2.560000E+02
   13.0500  0.000000E+00  2.560000E+02
   13.1500  0.000000E+00  2.560000E+02
   13.2500  0.000000E+00  2.560000E+02
   13.3500  0.000000E+00  2.560000E+02
   13.4500  0.000000E+00  2.560000E+02
   13.5500  0.000000E+00  2.560000E+02
   13.6500  0.000000E+00  2.560000E+02
   13.7500  0.000000E+00  2.560000E+02
   13.8500  0.000000E+00  2.560000E+02
   13.9500  0.000000E+00  2.560000E+02
   14.0500  0.000000E+00  2.560000E+02
   14.1500  0.000000E+00  2.560000E+02
   14.2500  0.000000E+00  2.560000E+02
   14.3500  0.000000E+00  2.560000E+02
   14.4500  0.000000E+00  2.560000E+02

 time elapsed since job start =           6.886 seconds

