
                    DL_POLY Classic 1.2

                              Running on    8 nodes


 ************************************************************************************************************************
 ************************************************************************************************************************
 ************************************************************************************************************************
 ***************     DL_POLY TEST 35: DMSO Free Energy Test Case                                          ***************
 ************************************************************************************************************************
 ************************************************************************************************************************
 ************************************************************************************************************************


 SIMULATION CONTROL PARAMETERS


 leapfrog verlet integration selected

 simulation temperature           2.9800E+02

 selected number of timesteps         1000

 equilibration period                  500

 simulation timestep              1.0000E-03

 data printing interval                 10

 statistics file interval               10

 noscale restart requested

 Nose-Hoover 
 thermostat relaxation time       1.0000E-01


 radial distribution functions on 
 g(r) collection interval               10
 g(r) bin width                   5.0000E-02

 g(r) printing option on      

 real space cut off               1.3000E+01

 real space cut off (vdw)         1.3000E+01

 border width of Verlet shell     1.0000E+00


 Electrostatics : reaction field


 relative dielectric constant     4.6000E+01

 free energy option selected
 start of free energy calculation        500
 sampling interval                        10
 free energy parameter (lambda)        0.250
 mixing rule selected                      4
 mixing rule exponent                      1
 system A first atom                    5021
 system A last atom                     5120
 system B first atom                    5121
 system B last atom                     5220
 mass scaling option                       F

 user allocated job time (h)     10.0000

 job closure time        (s)     100.000

  *** warning - RDF calculation cancelled - free energy option in use ***


SYSTEM SPECIFICATION

 energy units=kcal/ mol 


 number of molecular types               2

 molecular species type                  1


 name of species:             DMSO                                    

 number of molecules                   512

 number of atoms/sites                  10


 atomic characteristics:

                      site     name          mass        charge    repeat    freeze

                         1     S           32.06000     0.11674         1         0
                         2     O           15.99940    -0.43674         1         0
                         3     C           12.01100     0.16000         1         0
                         4     C           12.01100     0.16000         1         0
                         5     H            1.00800     0.00000         1         0
                         6     H            1.00800     0.00000         1         0
                         7     H            1.00800     0.00000         1         0
                         8     H            1.00800     0.00000         1         0
                         9     H            1.00800     0.00000         1         0
                        10     H            1.00800     0.00000         1         0

 number of bond constraints              9


 constraint bond details:

                          index     index  bondlength

                              1         2    1.590000
                              1         3    1.800000
                              3         5    1.090000
                              1         4    1.800000
                              3         6    1.090000
                              3         7    1.090000
                              4         8    1.090000
                              4        10    1.090000
                              4         9    1.090000

 number of bond angles                  15


 bond angle details:

                            key     index     index     index     f-const       angle

                           hcos         2         1         3  1.0013E+02   92.100000    0.000000    0.000000    0.000000    0.000000
                           hcos         2         1         4  1.0013E+02   92.100000    0.000000    0.000000    0.000000    0.000000
                           hcos         3         1         4  1.0013E+02   92.100000    0.000000    0.000000    0.000000    0.000000
                           hcos         1         3         5  1.1250E+02  109.471000    0.000000    0.000000    0.000000    0.000000
                           hcos         1         3         6  1.1250E+02  109.471000    0.000000    0.000000    0.000000    0.000000
                           hcos         5         3         6  1.1250E+02  109.471000    0.000000    0.000000    0.000000    0.000000
                           hcos         1         3         7  1.1250E+02  109.471000    0.000000    0.000000    0.000000    0.000000
                           hcos         5         3         7  1.1250E+02  109.471000    0.000000    0.000000    0.000000    0.000000
                           hcos         6         3         7  1.1250E+02  109.471000    0.000000    0.000000    0.000000    0.000000
                           hcos         1         4         8  1.1250E+02  109.471000    0.000000    0.000000    0.000000    0.000000
                           hcos         1         4        10  1.1250E+02  109.471000    0.000000    0.000000    0.000000    0.000000
                           hcos         8         4        10  1.1250E+02  109.471000    0.000000    0.000000    0.000000    0.000000
                           hcos         1         4         9  1.1250E+02  109.471000    0.000000    0.000000    0.000000    0.000000
                           hcos         8         4         9  1.1250E+02  109.471000    0.000000    0.000000    0.000000    0.000000
                           hcos         9         4        10  1.1250E+02  109.471000    0.000000    0.000000    0.000000    0.000000

 number of dihedral angles              12


 dihedral angle details:

                            key     index     index     index     index     f-const       angle        trig    1-4 elec     1-4 vdw

                           cos          2         1         3         5  1.6667E-01    0.000000    3.000000    1.000000    1.000000
                           cos          2         1         3         6  1.6667E-01    0.000000    3.000000    1.000000    1.000000
                           cos          2         1         3         7  1.6667E-01    0.000000    3.000000    1.000000    1.000000
                           cos          4         1         3         5  1.6667E-01    0.000000    3.000000    1.000000    1.000000
                           cos          4         1         3         6  1.6667E-01    0.000000    3.000000    1.000000    1.000000
                           cos          4         1         3         7  1.6667E-01    0.000000    3.000000    1.000000    1.000000
                           cos          2         1         4         8  1.6667E-01    0.000000    3.000000    1.000000    1.000000
                           cos          2         1         4        10  1.6667E-01    0.000000    3.000000    1.000000    1.000000
                           cos          2         1         4         9  1.6667E-01    0.000000    3.000000    1.000000    1.000000
                           cos          3         1         4         8  1.6667E-01    0.000000    3.000000    1.000000    1.000000
                           cos          3         1         4        10  1.6667E-01    0.000000    3.000000    1.000000    1.000000
                           cos          3         1         4         9  1.6667E-01    0.000000    3.000000    1.000000    1.000000

 molecular species type                  2


 name of species:             DMSO*                                   

 number of molecules                    10

 number of atoms/sites                  10


 atomic characteristics:

                      site     name          mass        charge    repeat    freeze

                        11     S*          32.06000     1.11674         1         0
                        12     O*          15.99940    -1.43674         1         0
                        13     C           12.01100     0.16000         1         0
                        14     C           12.01100     0.16000         1         0
                        15     H            1.00800     0.00000         1         0
                        16     H            1.00800     0.00000         1         0
                        17     H            1.00800     0.00000         1         0
                        18     H            1.00800     0.00000         1         0
                        19     H            1.00800     0.00000         1         0
                        20     H            1.00800     0.00000         1         0

 number of bond constraints              9


 constraint bond details:

                          index     index  bondlength

                              1         2    1.590000
                              1         3    1.800000
                              3         5    1.090000
                              1         4    1.800000
                              3         6    1.090000
                              3         7    1.090000
                              4         8    1.090000
                              4        10    1.090000
                              4         9    1.090000

 number of bond angles                  15


 bond angle details:

                            key     index     index     index     f-const       angle

                           hcos         2         1         3  1.0013E+02   92.100000    0.000000    0.000000    0.000000    0.000000
                           hcos         2         1         4  1.0013E+02   92.100000    0.000000    0.000000    0.000000    0.000000
                           hcos         3         1         4  1.0013E+02   92.100000    0.000000    0.000000    0.000000    0.000000
                           hcos         1         3         5  1.1250E+02  109.471000    0.000000    0.000000    0.000000    0.000000
                           hcos         1         3         6  1.1250E+02  109.471000    0.000000    0.000000    0.000000    0.000000
                           hcos         5         3         6  1.1250E+02  109.471000    0.000000    0.000000    0.000000    0.000000
                           hcos         1         3         7  1.1250E+02  109.471000    0.000000    0.000000    0.000000    0.000000
                           hcos         5         3         7  1.1250E+02  109.471000    0.000000    0.000000    0.000000    0.000000
                           hcos         6         3         7  1.1250E+02  109.471000    0.000000    0.000000    0.000000    0.000000
                           hcos         1         4         8  1.1250E+02  109.471000    0.000000    0.000000    0.000000    0.000000
                           hcos         1         4        10  1.1250E+02  109.471000    0.000000    0.000000    0.000000    0.000000
                           hcos         8         4        10  1.1250E+02  109.471000    0.000000    0.000000    0.000000    0.000000
                           hcos         1         4         9  1.1250E+02  109.471000    0.000000    0.000000    0.000000    0.000000
                           hcos         8         4         9  1.1250E+02  109.471000    0.000000    0.000000    0.000000    0.000000
                           hcos         9         4        10  1.1250E+02  109.471000    0.000000    0.000000    0.000000    0.000000

 number of dihedral angles              12


 dihedral angle details:

                            key     index     index     index     index     f-const       angle        trig    1-4 elec     1-4 vdw

                           cos          2         1         3         5  1.6667E-01    0.000000    3.000000    1.000000    1.000000
                           cos          2         1         3         6  1.6667E-01    0.000000    3.000000    1.000000    1.000000
                           cos          2         1         3         7  1.6667E-01    0.000000    3.000000    1.000000    1.000000
                           cos          4         1         3         5  1.6667E-01    0.000000    3.000000    1.000000    1.000000
                           cos          4         1         3         6  1.6667E-01    0.000000    3.000000    1.000000    1.000000
                           cos          4         1         3         7  1.6667E-01    0.000000    3.000000    1.000000    1.000000
                           cos          2         1         4         8  1.6667E-01    0.000000    3.000000    1.000000    1.000000
                           cos          2         1         4        10  1.6667E-01    0.000000    3.000000    1.000000    1.000000
                           cos          2         1         4         9  1.6667E-01    0.000000    3.000000    1.000000    1.000000
                           cos          3         1         4         8  1.6667E-01    0.000000    3.000000    1.000000    1.000000
                           cos          3         1         4        10  1.6667E-01    0.000000    3.000000    1.000000    1.000000
                           cos          3         1         4         9  1.6667E-01    0.000000    3.000000    1.000000    1.000000


 number of specified pair potentials        21


                atom 1  atom 2      key                              parameters


                S       S         12-6     6.31276E+06  2.94726E+03
                S*      S*        12-6     6.31276E+06  2.94726E+03
                S       S*        12-6     6.31276E+06  2.94726E+03
                S       O         12-6     1.26318E+06  9.57483E+02
                S*      O*        12-6     1.26318E+06  9.57483E+02
                S       O*        12-6     1.26318E+06  9.57483E+02
                S*      O         12-6     1.26318E+06  9.57483E+02
                S       C         12-6     2.72377E+06  1.40378E+03
                S*      C         12-6     2.72377E+06  1.40378E+03
                S       H         12-6     3.57187E+05  3.21424E+02
                S*      H         12-6     3.57187E+05  3.21424E+02
                O       O         12-6     2.32116E+05  2.98084E+02
                O*      O*        12-6     2.32116E+05  2.98084E+02
                O       O*        12-6     2.32116E+05  2.98084E+02
                O       C         12-6     5.35958E+05  4.52239E+02
                O*      C         12-6     5.35958E+05  4.52239E+02
                O       H         12-6     6.35666E+04  9.84767E+01
                O*      H         12-6     6.35666E+04  9.84767E+01
                C       C         12-6     1.17134E+06  6.67517E+02
                C       H         12-6     1.50602E+05  1.51339E+02
                H       H         12-6     1.71986E+04  3.23369E+01

 configuration file name: 

          Dimethyl Sulfoxide                                                              


 selected image convention               1


 simulation cell vectors


                        40.351897    0.000000    0.000000
                         0.000000   40.351897    0.000000
                         0.000000    0.000000   40.351897


 system volume            65704.0089859    

 shared atoms from passcon                      10


 total degrees of freedom                     10959.
 rotational degrees of freedom                    0.
 shell pseudo degrees of freedom                  0.


 sample of starting configuration

      i       x(i)        y(i)        z(i)       vx(i)       vy(i)       vz(i)       fx(i)       fy(i)       fz(i)


      1 -1.1067E+01 -1.5990E+01  1.8234E+01 -5.0051E+00 -1.4052E+00 -3.0638E+00 -7.4634E+02  7.7080E+03 -2.1924E+03
    262 -9.3568E-01 -4.3169E+00 -1.8197E+01  3.4366E+00 -2.9542E+00 -3.9418E+00  6.9603E+02  1.5140E+03  8.1148E+02
    523 -1.7648E+00  8.9973E+00 -1.2322E+01  4.5309E+00  1.9172E+00  1.7428E+00  1.0845E+04 -9.9802E+02 -6.2152E+03
    784  9.4893E+00 -1.7972E+01  1.8163E+01 -1.8015E+00  1.6849E+00  4.2711E+00 -2.3541E+03  3.6120E+03 -2.4138E+03
   1045 -1.7895E+01  1.0635E+01 -1.3451E+01 -1.5141E+00 -3.0667E+01 -2.5006E+01  3.3668E+03 -2.3263E+02 -3.8329E+02
   1306 -9.5641E+00 -1.6171E+01  3.9685E+00  1.0543E+00  5.1340E+00  3.6583E+00  1.1475E+03 -1.8948E+03  1.1919E+03
   1567  4.4186E+00  1.6141E+00 -1.8357E+01  2.3253E+00 -9.4374E+00 -1.9472E+01 -3.2374E+02  5.7764E+03  3.4112E+03
   1828  1.1102E+01  1.1683E+01 -6.9272E+00 -1.7384E+01 -2.6791E+01 -5.7196E+00  1.7145E+02  4.1256E+03 -1.5925E+03
   2089 -1.1670E+01 -7.9887E+00 -2.7771E+00  2.3068E+01 -1.5665E+01 -1.4717E+01  5.6263E+03 -6.3494E+03 -6.8127E+03
   2350 -3.6586E+00  3.3739E+00  3.0148E+00 -1.0059E+01 -2.6505E+01 -1.4018E+01  1.7296E+03 -3.2791E+02  1.8910E+03
   2611  7.8326E+00 -1.5667E+01  2.5602E+00  4.3721E-01  4.1709E+00  3.6283E+00 -2.2536E+03  2.0490E+02 -8.0654E+02
   2872 -1.9707E+01  2.1874E+00 -5.1526E+00 -1.9905E+00  1.0929E+00 -4.3402E+00  4.0035E+03 -2.0924E+03 -2.6075E+03
   3133 -1.5938E+01  1.4667E+01  7.0864E+00 -3.1693E-01  6.7051E-02 -3.2730E+00 -8.3378E+03 -2.0902E+03 -9.7802E+03
   3394  5.6858E+00 -4.0498E+00  2.3257E+00 -4.8656E+00  6.5530E+00  4.0974E+00 -6.4970E+03  1.0224E+03  9.0480E+02
   3655  5.7058E+00  7.2374E+00  1.8578E-01 -3.2188E+00 -4.9451E+00 -1.8756E+01  6.0561E+02  2.0132E+02  1.0886E+03
   3916 -1.3046E+01 -1.8439E+01  1.0880E+01  7.5111E+00 -2.2373E+01 -4.5020E+00 -1.6142E+03 -3.5796E+03  6.7070E+03
   4177 -8.8453E+00  9.9474E+00  1.3357E+01  1.2130E+01 -8.0521E+00  4.1901E+00  1.7895E+03 -7.4831E+02  3.7887E+02
   4438  6.4735E+00  1.2977E+01  1.3967E+01 -1.0253E+01 -1.7072E+01  4.5890E+00 -5.1078E+03 -3.0173E+03 -1.0599E+03
   4699 -3.0559E+00 -4.1305E+00 -1.6183E+01  9.6933E+00  1.0654E+00  1.8767E+00  2.2335E+03 -5.1283E+02 -2.1549E+03
   4960 -1.8474E+01  3.1209E+00  1.1352E+01 -1.8615E-01 -6.6445E+00 -1.0662E+01  3.5620E+03  1.1878E+03 -7.6443E+03


long range correction for: vdw energy    -0.954171E+02
                         : vdw pressure  -0.199134E+00

 time elapsed since job start =           1.086 seconds

 ------------------------------------------------------------------------------------------------------------------------

     step     eng_tot    temp_tot     eng_cfg     eng_vdw     eng_cou     eng_bnd     eng_ang     eng_dih     eng_tet
 time          eng_pv    temp_rot     vir_cfg     vir_vdw     vir_cou     vir_bnd     vir_ang     vir_con     vir_tet
 cpu time      volume    temp_shl     eng_shl     vir_shl       alpha        beta       gamma     vir_pmf       press

 ------------------------------------------------------------------------------------------------------------------------
        1  3.0940E+03  3.0101E+02 -1.8378E+02 -1.9489E+03 -1.6162E+03  0.0000E+00  2.9931E+03  3.8822E+02  0.0000E+00
   1.000f  5.1211E+03  0.0000E+00  4.7413E+02 -2.2304E+04  1.6511E+03  0.0000E+00  0.0000E+00  2.1127E+04  0.0000E+00
   1.245s  6.5704E+04  0.0000E+00  0.0000E+00  0.0000E+00  9.0000E+01  9.0000E+01  9.0000E+01  0.0000E+00  2.1155E+00

  rolling  3.0940E+03  3.0101E+02 -1.8378E+02 -1.9489E+03 -1.6162E+03  0.0000E+00  2.9931E+03  3.8822E+02  0.0000E+00
 averages  5.1211E+03  0.0000E+00  4.7413E+02 -2.2304E+04  1.6511E+03  0.0000E+00  0.0000E+00  2.1127E+04  0.0000E+00
           6.5704E+04  0.0000E+00  0.0000E+00  0.0000E+00  9.0000E+01  9.0000E+01  9.0000E+01  0.0000E+00  2.1155E+00
 ------------------------------------------------------------------------------------------------------------------------
       10  3.0891E+03  3.2849E+02 -4.8947E+02 -2.0575E+03 -1.6169E+03  0.0000E+00  2.7938E+03  3.9117E+02  0.0000E+00
  10.000f  5.8855E+03  0.0000E+00 -1.2402E+03 -2.0951E+04  1.6490E+03  0.0000E+00  0.0000E+00  1.8062E+04  0.0000E+00
   1.870s  6.5704E+04  0.0000E+00  0.0000E+00  0.0000E+00  9.0000E+01  9.0000E+01  9.0000E+01  0.0000E+00  2.9200E+00

  rolling  3.0898E+03  3.1930E+02 -3.8752E+02 -2.0230E+03 -1.6163E+03  0.0000E+00  2.8621E+03  3.8965E+02  0.0000E+00
 averages  5.8131E+03  0.0000E+00 -1.2179E+03 -2.1379E+04  1.6497E+03  0.0000E+00  0.0000E+00  1.8512E+04  0.0000E+00
           6.5704E+04  0.0000E+00  0.0000E+00  0.0000E+00  9.0000E+01  9.0000E+01  9.0000E+01  0.0000E+00  2.8426E+00
 ------------------------------------------------------------------------------------------------------------------------
       20  3.0901E+03  3.2479E+02 -4.5633E+02 -2.0632E+03 -1.6221E+03  0.0000E+00  2.8300E+03  3.9902E+02  0.0000E+00
  20.000f  5.7581E+03  0.0000E+00 -9.6024E+02 -2.0894E+04  1.6527E+03  0.0000E+00  0.0000E+00  1.8281E+04  0.0000E+00
   2.658s  6.5704E+04  0.0000E+00  0.0000E+00  0.0000E+00  9.0000E+01  9.0000E+01  9.0000E+01  0.0000E+00  2.7945E+00

  rolling  3.0898E+03  3.2295E+02 -4.2983E+02 -2.0409E+03 -1.6179E+03  0.0000E+00  2.8368E+03  3.9220E+02  0.0000E+00
 averages  5.8798E+03  0.0000E+00 -1.3459E+03 -2.1164E+04  1.6503E+03  0.0000E+00  0.0000E+00  1.8168E+04  0.0000E+00
           6.5704E+04  0.0000E+00  0.0000E+00  0.0000E+00  9.0000E+01  9.0000E+01  9.0000E+01  0.0000E+00  2.9148E+00
 ------------------------------------------------------------------------------------------------------------------------
       30  3.0898E+03  3.3535E+02 -5.8710E+02 -2.0758E+03 -1.6273E+03  0.0000E+00  2.7109E+03  4.0510E+02  0.0000E+00
  30.000f  5.4207E+03  0.0000E+00  2.3459E+02 -2.0718E+04  1.6541E+03  0.0000E+00  0.0000E+00  1.9298E+04  0.0000E+00
   3.450s  6.5704E+04  0.0000E+00  0.0000E+00  0.0000E+00  9.0000E+01  9.0000E+01  9.0000E+01  0.0000E+00  2.4589E+00

  rolling  3.0899E+03  3.2575E+02 -4.6507E+02 -2.0554E+03 -1.6203E+03  0.0000E+00  2.8151E+03  3.9557E+02  0.0000E+00
 averages  5.6774E+03  0.0000E+00 -6.9191E+02 -2.0979E+04  1.6514E+03  0.0000E+00  0.0000E+00  1.8636E+04  0.0000E+00
           6.5704E+04  0.0000E+00  0.0000E+00  0.0000E+00  9.0000E+01  9.0000E+01  9.0000E+01  0.0000E+00  2.7085E+00
 ------------------------------------------------------------------------------------------------------------------------
       40  3.0897E+03  3.3599E+02 -6.1779E+02 -2.0857E+03 -1.6329E+03  0.0000E+00  2.6977E+03  4.0305E+02  0.0000E+00
  40.000f  5.5390E+03  0.0000E+00 -1.7713E+02 -2.0610E+04  1.6557E+03  0.0000E+00  0.0000E+00  1.8777E+04  0.0000E+00
   4.247s  6.5704E+04  0.0000E+00  0.0000E+00  0.0000E+00  9.0000E+01  9.0000E+01  9.0000E+01  0.0000E+00  2.6070E+00

  rolling  3.0900E+03  3.2678E+02 -4.8350E+02 -2.0595E+03 -1.6228E+03  0.0000E+00  2.8008E+03  3.9797E+02  0.0000E+00
 averages  5.6958E+03  0.0000E+00 -7.4658E+02 -2.0931E+04  1.6523E+03  0.0000E+00  0.0000E+00  1.8532E+04  0.0000E+00
           6.5704E+04  0.0000E+00  0.0000E+00  0.0000E+00  9.0000E+01  9.0000E+01  9.0000E+01  0.0000E+00  2.7353E+00
 ------------------------------------------------------------------------------------------------------------------------
       50  3.0904E+03  3.2879E+02 -5.7072E+02 -2.0632E+03 -1.6385E+03  0.0000E+00  2.7367E+03  3.9429E+02  0.0000E+00
  50.000f  5.5889E+03  0.0000E+00 -5.7815E+02 -2.0871E+04  1.6563E+03  0.0000E+00  0.0000E+00  1.8637E+04  0.0000E+00
   5.032s  6.5704E+04  0.0000E+00  0.0000E+00  0.0000E+00  9.0000E+01  9.0000E+01  9.0000E+01  0.0000E+00  2.6919E+00

  rolling  3.0901E+03  3.2798E+02 -5.0656E+02 -2.0645E+03 -1.6254E+03  0.0000E+00  2.7853E+03  3.9807E+02  0.0000E+00
 averages  5.6207E+03  0.0000E+00 -5.2511E+02 -2.0867E+04  1.6531E+03  0.0000E+00  0.0000E+00  1.8689E+04  0.0000E+00
           6.5704E+04  0.0000E+00  0.0000E+00  0.0000E+00  9.0000E+01  9.0000E+01  9.0000E+01  0.0000E+00  2.6673E+00
 ------------------------------------------------------------------------------------------------------------------------
       60  3.0893E+03  3.3770E+02 -7.0811E+02 -2.0836E+03 -1.6433E+03  0.0000E+00  2.6369E+03  3.8200E+02  0.0000E+00
  60.000f  5.4311E+03  0.0000E+00 -3.1608E+01 -2.0613E+04  1.6574E+03  0.0000E+00  0.0000E+00  1.8924E+04  0.0000E+00
   5.828s  6.5704E+04  0.0000E+00  0.0000E+00  0.0000E+00  9.0000E+01  9.0000E+01  9.0000E+01  0.0000E+00  2.5693E+00

  rolling  3.0902E+03  3.2815E+02 -5.2108E+02 -2.0646E+03 -1.6281E+03  0.0000E+00  2.7753E+03  3.9637E+02  0.0000E+00
 averages  5.6371E+03  0.0000E+00 -6.0830E+02 -2.0863E+04  1.6537E+03  0.0000E+00  0.0000E+00  1.8601E+04  0.0000E+00
           6.5704E+04  0.0000E+00  0.0000E+00  0.0000E+00  9.0000E+01  9.0000E+01  9.0000E+01  0.0000E+00  2.6976E+00
 ------------------------------------------------------------------------------------------------------------------------
       70  3.0907E+03  3.2997E+02 -6.6941E+02 -2.1075E+03 -1.6458E+03  0.0000E+00  2.7077E+03  3.7627E+02  0.0000E+00
  70.000f  5.0519E+03  0.0000E+00  8.0091E+02 -2.0273E+04  1.6585E+03  0.0000E+00  0.0000E+00  1.9415E+04  0.0000E+00
   6.618s  6.5704E+04  0.0000E+00  0.0000E+00  0.0000E+00  9.0000E+01  9.0000E+01  9.0000E+01  0.0000E+00  2.2211E+00

  rolling  3.0904E+03  3.2809E+02 -5.3564E+02 -2.0685E+03 -1.6305E+03  0.0000E+00  2.7695E+03  3.9383E+02  0.0000E+00
 averages  5.5820E+03  0.0000E+00 -4.8984E+02 -2.0811E+04  1.6543E+03  0.0000E+00  0.0000E+00  1.8667E+04  0.0000E+00
           6.5704E+04  0.0000E+00  0.0000E+00  0.0000E+00  9.0000E+01  9.0000E+01  9.0000E+01  0.0000E+00  2.6560E+00
 ------------------------------------------------------------------------------------------------------------------------
 ------------------------------------------------------------------------------------------------------------------------

     step     eng_tot    temp_tot     eng_cfg     eng_vdw     eng_cou     eng_bnd     eng_ang     eng_dih     eng_tet
 time          eng_pv    temp_rot     vir_cfg     vir_vdw     vir_cou     vir_bnd     vir_ang     vir_con     vir_tet
 cpu time      volume    temp_shl     eng_shl     vir_shl       alpha        beta       gamma     vir_pmf       press

 ------------------------------------------------------------------------------------------------------------------------
       80  3.0913E+03  3.2535E+02 -6.7350E+02 -2.1293E+03 -1.6482E+03  0.0000E+00  2.7272E+03  3.7685E+02  0.0000E+00
  80.000f  5.4302E+03  0.0000E+00 -5.9757E+02 -1.9974E+04  1.6603E+03  0.0000E+00  0.0000E+00  1.7716E+04  0.0000E+00
   7.408s  6.5704E+04  0.0000E+00  0.0000E+00  0.0000E+00  9.0000E+01  9.0000E+01  9.0000E+01  0.0000E+00  2.6727E+00

  rolling  3.0904E+03  3.2847E+02 -5.5758E+02 -2.0763E+03 -1.6325E+03  0.0000E+00  2.7597E+03  3.9158E+02  0.0000E+00
 averages  5.5365E+03  0.0000E+00 -3.9858E+02 -2.0703E+04  1.6550E+03  0.0000E+00  0.0000E+00  1.8650E+04  0.0000E+00
           6.5704E+04  0.0000E+00  0.0000E+00  0.0000E+00  9.0000E+01  9.0000E+01  9.0000E+01  0.0000E+00  2.6271E+00
 ------------------------------------------------------------------------------------------------------------------------
       90  3.0912E+03  3.2683E+02 -7.5096E+02 -2.1620E+03 -1.6496E+03  0.0000E+00  2.6772E+03  3.8340E+02  0.0000E+00
  90.000f  4.4330E+03  0.0000E+00  2.2424E+03 -1.9540E+04  1.6590E+03  0.0000E+00  0.0000E+00  2.0123E+04  0.0000E+00
   8.103s  6.5704E+04  0.0000E+00  0.0000E+00  0.0000E+00  9.0000E+01  9.0000E+01  9.0000E+01  0.0000E+00  1.6959E+00

  rolling  3.0905E+03  3.2826E+02 -5.7559E+02 -2.0842E+03 -1.6344E+03  0.0000E+00  2.7527E+03  3.9029E+02  0.0000E+00
 averages  5.4727E+03  0.0000E+00 -2.7307E+02 -2.0596E+04  1.6555E+03  0.0000E+00  0.0000E+00  1.8668E+04  0.0000E+00
           6.5704E+04  0.0000E+00  0.0000E+00  0.0000E+00  9.0000E+01  9.0000E+01  9.0000E+01  0.0000E+00  2.5818E+00
 ------------------------------------------------------------------------------------------------------------------------
      100  3.0920E+03  3.1598E+02 -6.9871E+02 -2.1648E+03 -1.6506E+03  0.0000E+00  2.7259E+03  3.9080E+02  0.0000E+00
 100.000f  5.0379E+03  0.0000E+00 -6.5269E+00 -1.9498E+04  1.6587E+03  0.0000E+00  0.0000E+00  1.7833E+04  0.0000E+00
   8.891s  6.5704E+04  0.0000E+00  0.0000E+00  0.0000E+00  9.0000E+01  9.0000E+01  9.0000E+01  0.0000E+00  2.3960E+00

  rolling  3.0906E+03  3.2750E+02 -5.9009E+02 -2.0926E+03 -1.6360E+03  0.0000E+00  2.7484E+03  3.9001E+02  0.0000E+00
 averages  5.3995E+03  0.0000E+00 -1.3790E+02 -2.0482E+04  1.6558E+03  0.0000E+00  0.0000E+00  1.8689E+04  0.0000E+00
           6.5704E+04  0.0000E+00  0.0000E+00  0.0000E+00  9.0000E+01  9.0000E+01  9.0000E+01  0.0000E+00  2.5291E+00
 ------------------------------------------------------------------------------------------------------------------------
      110  3.0919E+03  3.1218E+02 -7.2876E+02 -2.1478E+03 -1.6536E+03  0.0000E+00  2.6741E+03  3.9853E+02  0.0000E+00
 110.000f  4.5958E+03  0.0000E+00  1.0231E+03 -1.9699E+04  1.6599E+03  0.0000E+00  0.0000E+00  1.9062E+04  0.0000E+00
   9.687s  6.5704E+04  0.0000E+00  0.0000E+00  0.0000E+00  9.0000E+01  9.0000E+01  9.0000E+01  0.0000E+00  2.0091E+00

  rolling  3.0907E+03  3.2749E+02 -6.2861E+02 -2.1063E+03 -1.6395E+03  0.0000E+00  2.7267E+03  3.9054E+02  0.0000E+00
 averages  5.3042E+03  0.0000E+00  3.1482E+01 -2.0300E+04  1.6568E+03  0.0000E+00  0.0000E+00  1.8675E+04  0.0000E+00
           6.5704E+04  0.0000E+00  0.0000E+00  0.0000E+00  9.0000E+01  9.0000E+01  9.0000E+01  0.0000E+00  2.4700E+00
 ------------------------------------------------------------------------------------------------------------------------
      120  3.0908E+03  3.1158E+02 -7.9611E+02 -2.1379E+03 -1.6584E+03  0.0000E+00  2.6007E+03  3.9956E+02  0.0000E+00
 120.000f  4.6978E+03  0.0000E+00  4.8205E+02 -1.9825E+04  1.6620E+03  0.0000E+00  0.0000E+00  1.8645E+04  0.0000E+00
  10.484s  6.5704E+04  0.0000E+00  0.0000E+00  0.0000E+00  9.0000E+01  9.0000E+01  9.0000E+01  0.0000E+00  2.1928E+00

  rolling  3.0909E+03  3.2585E+02 -6.5612E+02 -2.1153E+03 -1.6432E+03  0.0000E+00  2.7114E+03  3.9102E+02  0.0000E+00
 averages  5.1588E+03  0.0000E+00  2.9575E+02 -2.0173E+04  1.6578E+03  0.0000E+00  0.0000E+00  1.8811E+04  0.0000E+00
           6.5704E+04  0.0000E+00  0.0000E+00  0.0000E+00  9.0000E+01  9.0000E+01  9.0000E+01  0.0000E+00  2.3657E+00
 ------------------------------------------------------------------------------------------------------------------------
      130  3.0907E+03  3.0755E+02 -8.2788E+02 -2.1320E+03 -1.6621E+03  0.0000E+00  2.5711E+03  3.9511E+02  0.0000E+00
 130.000f  4.7113E+03  0.0000E+00  1.2675E+02 -1.9903E+04  1.6622E+03  0.0000E+00  0.0000E+00  1.8367E+04  0.0000E+00
  11.280s  6.5704E+04  0.0000E+00  0.0000E+00  0.0000E+00  9.0000E+01  9.0000E+01  9.0000E+01  0.0000E+00  2.2858E+00

  rolling  3.0909E+03  3.2364E+02 -6.8385E+02 -2.1188E+03 -1.6468E+03  0.0000E+00  2.6912E+03  3.9051E+02  0.0000E+00
 averages  5.1207E+03  0.0000E+00  2.0696E+02 -2.0119E+04  1.6586E+03  0.0000E+00  0.0000E+00  1.8668E+04  0.0000E+00
           6.5704E+04  0.0000E+00  0.0000E+00  0.0000E+00  9.0000E+01  9.0000E+01  9.0000E+01  0.0000E+00  2.3798E+00
 ------------------------------------------------------------------------------------------------------------------------
      140  3.0897E+03  3.0850E+02 -9.1618E+02 -2.1523E+03 -1.6648E+03  0.0000E+00  2.5149E+03  3.8597E+02  0.0000E+00
 140.000f  4.5315E+03  0.0000E+00  4.5333E+02 -1.9640E+04  1.6621E+03  0.0000E+00  0.0000E+00  1.8432E+04  0.0000E+00
  12.065s  6.5704E+04  0.0000E+00  0.0000E+00  0.0000E+00  9.0000E+01  9.0000E+01  9.0000E+01  0.0000E+00  2.1795E+00

  rolling  3.0909E+03  3.2130E+02 -7.1584E+02 -2.1263E+03 -1.6501E+03  0.0000E+00  2.6716E+03  3.8900E+02  0.0000E+00
 averages  4.9862E+03  0.0000E+00  3.8707E+02 -2.0010E+04  1.6594E+03  0.0000E+00  0.0000E+00  1.8738E+04  0.0000E+00
           6.5704E+04  0.0000E+00  0.0000E+00  0.0000E+00  9.0000E+01  9.0000E+01  9.0000E+01  0.0000E+00  2.2995E+00
 ------------------------------------------------------------------------------------------------------------------------
      150  3.0901E+03  2.9959E+02 -8.9660E+02 -2.1402E+03 -1.6662E+03  0.0000E+00  2.5273E+03  3.8252E+02  0.0000E+00
 150.000f  4.6237E+03  0.0000E+00 -2.4982E+02 -1.9784E+04  1.6576E+03  0.0000E+00  0.0000E+00  1.7876E+04  0.0000E+00
  12.776s  6.5704E+04  0.0000E+00  0.0000E+00  0.0000E+00  9.0000E+01  9.0000E+01  9.0000E+01  0.0000E+00  2.3565E+00

  rolling  3.0909E+03  3.1831E+02 -7.4565E+02 -2.1322E+03 -1.6531E+03  0.0000E+00  2.6520E+03  3.8753E+02  0.0000E+00
 averages  4.9311E+03  0.0000E+00  3.0002E+02 -1.9925E+04  1.6598E+03  0.0000E+00  0.0000E+00  1.8566E+04  0.0000E+00
           6.5704E+04  0.0000E+00  0.0000E+00  0.0000E+00  9.0000E+01  9.0000E+01  9.0000E+01  0.0000E+00  2.3071E+00
 ------------------------------------------------------------------------------------------------------------------------
 ------------------------------------------------------------------------------------------------------------------------

     step     eng_tot    temp_tot     eng_cfg     eng_vdw     eng_cou     eng_bnd     eng_ang     eng_dih     eng_tet
 time          eng_pv    temp_rot     vir_cfg     vir_vdw     vir_cou     vir_bnd     vir_ang     vir_con     vir_tet
 cpu time      volume    temp_shl     eng_shl     vir_shl       alpha        beta       gamma     vir_pmf       press

 ------------------------------------------------------------------------------------------------------------------------
      160  3.0902E+03  2.9200E+02 -8.9046E+02 -2.1209E+03 -1.6657E+03  0.0000E+00  2.5143E+03  3.8182E+02  0.0000E+00
 160.000f  4.3674E+03  0.0000E+00  1.2444E+02 -2.0042E+04  1.6537E+03  0.0000E+00  0.0000E+00  1.8513E+04  0.0000E+00
  13.577s  6.5704E+04  0.0000E+00  0.0000E+00  0.0000E+00  9.0000E+01  9.0000E+01  9.0000E+01  0.0000E+00  2.1689E+00

  rolling  3.0908E+03  3.1509E+02 -7.7718E+02 -2.1383E+03 -1.6555E+03  0.0000E+00  2.6297E+03  3.8694E+02  0.0000E+00
 averages  4.7897E+03  0.0000E+00  4.5443E+02 -1.9837E+04  1.6596E+03  0.0000E+00  0.0000E+00  1.8631E+04  0.0000E+00
           6.5704E+04  0.0000E+00  0.0000E+00  0.0000E+00  9.0000E+01  9.0000E+01  9.0000E+01  0.0000E+00  2.2290E+00
 ------------------------------------------------------------------------------------------------------------------------
      170  3.0906E+03  2.8370E+02 -8.7341E+02 -2.1444E+03 -1.6653E+03  0.0000E+00  2.5568E+03  3.7955E+02  0.0000E+00
 170.000f  4.6761E+03  0.0000E+00 -1.2027E+03 -1.9718E+04  1.6505E+03  0.0000E+00  0.0000E+00  1.6865E+04  0.0000E+00
  14.380s  6.5704E+04  0.0000E+00  0.0000E+00  0.0000E+00  9.0000E+01  9.0000E+01  9.0000E+01  0.0000E+00  2.5676E+00

  rolling  3.0907E+03  3.1127E+02 -8.0535E+02 -2.1427E+03 -1.6576E+03  0.0000E+00  2.6078E+03  3.8716E+02  0.0000E+00
 averages  4.7299E+03  0.0000E+00  3.4128E+02 -1.9771E+04  1.6590E+03  0.0000E+00  0.0000E+00  1.8454E+04  0.0000E+00
           6.5704E+04  0.0000E+00  0.0000E+00  0.0000E+00  9.0000E+01  9.0000E+01  9.0000E+01  0.0000E+00  2.2394E+00
 ------------------------------------------------------------------------------------------------------------------------
      180  3.0901E+03  2.8361E+02 -9.4464E+02 -2.1982E+03 -1.6658E+03  0.0000E+00  2.5466E+03  3.7275E+02  0.0000E+00
 180.000f  3.6668E+03  0.0000E+00  1.6071E+03 -1.9029E+04  1.6502E+03  0.0000E+00  0.0000E+00  1.8986E+04  0.0000E+00
  15.176s  6.5704E+04  0.0000E+00  0.0000E+00  0.0000E+00  9.0000E+01  9.0000E+01  9.0000E+01  0.0000E+00  1.5896E+00

  rolling  3.0905E+03  3.0711E+02 -8.3203E+02 -2.1468E+03 -1.6594E+03  0.0000E+00  2.5871E+03  3.8711E+02  0.0000E+00
 averages  4.6080E+03  0.0000E+00  4.0034E+02 -1.9713E+04  1.6581E+03  0.0000E+00  0.0000E+00  1.8455E+04  0.0000E+00
           6.5704E+04  0.0000E+00  0.0000E+00  0.0000E+00  9.0000E+01  9.0000E+01  9.0000E+01  0.0000E+00  2.1873E+00
 ------------------------------------------------------------------------------------------------------------------------
      190  3.0896E+03  2.8319E+02 -1.0098E+03 -2.1890E+03 -1.6665E+03  0.0000E+00  2.4769E+03  3.6888E+02  0.0000E+00
 190.000f  4.2831E+03  0.0000E+00 -4.6030E+02 -1.9146E+04  1.6517E+03  0.0000E+00  0.0000E+00  1.7034E+04  0.0000E+00
  15.881s  6.5704E+04  0.0000E+00  0.0000E+00  0.0000E+00  9.0000E+01  9.0000E+01  9.0000E+01  0.0000E+00  2.3055E+00

  rolling  3.0902E+03  3.0323E+02 -8.6302E+02 -2.1522E+03 -1.6611E+03  0.0000E+00  2.5642E+03  3.8609E+02  0.0000E+00
 averages  4.5101E+03  0.0000E+00  3.9029E+02 -1.9638E+04  1.6571E+03  0.0000E+00  0.0000E+00  1.8371E+04  0.0000E+00
           6.5704E+04  0.0000E+00  0.0000E+00  0.0000E+00  9.0000E+01  9.0000E+01  9.0000E+01  0.0000E+00  2.1615E+00
 ------------------------------------------------------------------------------------------------------------------------
      200  3.0883E+03  2.7976E+02 -1.0398E+03 -2.2186E+03 -1.6688E+03  0.0000E+00  2.4763E+03  3.7129E+02  0.0000E+00
 200.000f  3.6384E+03  0.0000E+00  1.1969E+03 -1.8752E+04  1.6565E+03  0.0000E+00  0.0000E+00  1.8292E+04  0.0000E+00
  16.676s  6.5704E+04  0.0000E+00  0.0000E+00  0.0000E+00  9.0000E+01  9.0000E+01  9.0000E+01  0.0000E+00  1.7031E+00

  rolling  3.0899E+03  2.9961E+02 -8.9709E+02 -2.1560E+03 -1.6629E+03  0.0000E+00  2.5375E+03  3.8429E+02  0.0000E+00
 averages  4.4309E+03  0.0000E+00  3.2799E+02 -1.9584E+04  1.6567E+03  0.0000E+00  0.0000E+00  1.8255E+04  0.0000E+00
           6.5704E+04  0.0000E+00  0.0000E+00  0.0000E+00  9.0000E+01  9.0000E+01  9.0000E+01  0.0000E+00  2.1557E+00
 ------------------------------------------------------------------------------------------------------------------------
      210  3.0872E+03  2.7856E+02 -1.0890E+03 -2.1838E+03 -1.6717E+03  0.0000E+00  2.3886E+03  3.7799E+02  0.0000E+00
 210.000f  3.9102E+03  0.0000E+00  1.6829E+02 -1.9194E+04  1.6612E+03  0.0000E+00  0.0000E+00  1.7701E+04  0.0000E+00
  17.479s  6.5704E+04  0.0000E+00  0.0000E+00  0.0000E+00  9.0000E+01  9.0000E+01  9.0000E+01  0.0000E+00  2.0517E+00

  rolling  3.0896E+03  2.9556E+02 -9.2608E+02 -2.1608E+03 -1.6647E+03  0.0000E+00  2.5171E+03  3.8230E+02  0.0000E+00
 averages  4.3149E+03  0.0000E+00  3.6902E+02 -1.9517E+04  1.6567E+03  0.0000E+00  0.0000E+00  1.8229E+04  0.0000E+00
           6.5704E+04  0.0000E+00  0.0000E+00  0.0000E+00  9.0000E+01  9.0000E+01  9.0000E+01  0.0000E+00  2.1108E+00
 ------------------------------------------------------------------------------------------------------------------------
      220  3.0870E+03  2.7354E+02 -1.0901E+03 -2.1917E+03 -1.6730E+03  0.0000E+00  2.3949E+03  3.7985E+02  0.0000E+00
 220.000f  3.5592E+03  0.0000E+00  9.4519E+02 -1.9080E+04  1.6646E+03  0.0000E+00  0.0000E+00  1.8360E+04  0.0000E+00
  18.185s  6.5704E+04  0.0000E+00  0.0000E+00  0.0000E+00  9.0000E+01  9.0000E+01  9.0000E+01  0.0000E+00  1.7435E+00

  rolling  3.0892E+03  2.9178E+02 -9.5654E+02 -2.1633E+03 -1.6664E+03  0.0000E+00  2.4928E+03  3.8028E+02  0.0000E+00
 averages  4.2485E+03  0.0000E+00  2.7073E+02 -1.9480E+04  1.6569E+03  0.0000E+00  0.0000E+00  1.8094E+04  0.0000E+00
           6.5704E+04  0.0000E+00  0.0000E+00  0.0000E+00  9.0000E+01  9.0000E+01  9.0000E+01  0.0000E+00  2.1163E+00
 ------------------------------------------------------------------------------------------------------------------------
      230  3.0867E+03  2.7206E+02 -1.1251E+03 -2.2255E+03 -1.6734E+03  0.0000E+00  2.3963E+03  3.7737E+02  0.0000E+00
 230.000f  3.6650E+03  0.0000E+00  4.4163E+02 -1.8609E+04  1.6663E+03  0.0000E+00  0.0000E+00  1.7384E+04  0.0000E+00
  18.982s  6.5704E+04  0.0000E+00  0.0000E+00  0.0000E+00  9.0000E+01  9.0000E+01  9.0000E+01  0.0000E+00  1.9074E+00

  rolling  3.0888E+03  2.8829E+02 -9.8803E+02 -2.1724E+03 -1.6676E+03  0.0000E+00  2.4736E+03  3.7840E+02  0.0000E+00
 averages  4.1103E+03  0.0000E+00  4.0069E+02 -1.9356E+04  1.6572E+03  0.0000E+00  0.0000E+00  1.8099E+04  0.0000E+00
           6.5704E+04  0.0000E+00  0.0000E+00  0.0000E+00  9.0000E+01  9.0000E+01  9.0000E+01  0.0000E+00  2.0446E+00
 ------------------------------------------------------------------------------------------------------------------------
 ------------------------------------------------------------------------------------------------------------------------

     step     eng_tot    temp_tot     eng_cfg     eng_vdw     eng_cou     eng_bnd     eng_ang     eng_dih     eng_tet
 time          eng_pv    temp_rot     vir_cfg     vir_vdw     vir_cou     vir_bnd     vir_ang     vir_con     vir_tet
 cpu time      volume    temp_shl     eng_shl     vir_shl       alpha        beta       gamma     vir_pmf       press

 ------------------------------------------------------------------------------------------------------------------------
      240  3.0851E+03  2.7844E+02 -1.2420E+03 -2.2261E+03 -1.6729E+03  0.0000E+00  2.2837E+03  3.7328E+02  0.0000E+00
 240.000f  3.1653E+03  0.0000E+00  1.9378E+03 -1.8578E+04  1.6659E+03  0.0000E+00  0.0000E+00  1.8850E+04  0.0000E+00
  19.694s  6.5704E+04  0.0000E+00  0.0000E+00  0.0000E+00  9.0000E+01  9.0000E+01  9.0000E+01  0.0000E+00  1.4353E+00

  rolling  3.0884E+03  2.8502E+02 -1.0192E+03 -2.1797E+03 -1.6686E+03  0.0000E+00  2.4522E+03  3.7689E+02  0.0000E+00
 averages  4.0242E+03  0.0000E+00  3.8773E+02 -1.9251E+04  1.6576E+03  0.0000E+00  0.0000E+00  1.7981E+04  0.0000E+00
           6.5704E+04  0.0000E+00  0.0000E+00  0.0000E+00  9.0000E+01  9.0000E+01  9.0000E+01  0.0000E+00  2.0244E+00
 ------------------------------------------------------------------------------------------------------------------------
      250  3.0860E+03  2.7031E+02 -1.1937E+03 -2.2368E+03 -1.6720E+03  0.0000E+00  2.3411E+03  3.7399E+02  0.0000E+00
 250.000f  3.1428E+03  0.0000E+00  1.7075E+03 -1.8399E+04  1.6638E+03  0.0000E+00  0.0000E+00  1.8443E+04  0.0000E+00
  20.493s  6.5704E+04  0.0000E+00  0.0000E+00  0.0000E+00  9.0000E+01  9.0000E+01  9.0000E+01  0.0000E+00  1.4538E+00

  rolling  3.0879E+03  2.8200E+02 -1.0496E+03 -2.1885E+03 -1.6693E+03  0.0000E+00  2.4322E+03  3.7588E+02  0.0000E+00
 averages  3.8549E+03  0.0000E+00  6.3968E+02 -1.9126E+04  1.6581E+03  0.0000E+00  0.0000E+00  1.8108E+04  0.0000E+00
           6.5704E+04  0.0000E+00  0.0000E+00  0.0000E+00  9.0000E+01  9.0000E+01  9.0000E+01  0.0000E+00  1.9138E+00
 ------------------------------------------------------------------------------------------------------------------------
      260  3.0852E+03  2.6767E+02 -1.2014E+03 -2.2215E+03 -1.6710E+03  0.0000E+00  2.3160E+03  3.7506E+02  0.0000E+00
 260.000f  3.4164E+03  0.0000E+00  7.1966E+02 -1.8582E+04  1.6626E+03  0.0000E+00  0.0000E+00  1.7639E+04  0.0000E+00
  21.196s  6.5704E+04  0.0000E+00  0.0000E+00  0.0000E+00  9.0000E+01  9.0000E+01  9.0000E+01  0.0000E+00  1.7774E+00

  rolling  3.0875E+03  2.7953E+02 -1.0821E+03 -2.1999E+03 -1.6698E+03  0.0000E+00  2.4125E+03  3.7515E+02  0.0000E+00
 averages  3.7581E+03  0.0000E+00  6.9796E+02 -1.8963E+04  1.6589E+03  0.0000E+00  0.0000E+00  1.8002E+04  0.0000E+00
           6.5704E+04  0.0000E+00  0.0000E+00  0.0000E+00  9.0000E+01  9.0000E+01  9.0000E+01  0.0000E+00  1.8748E+00
 ------------------------------------------------------------------------------------------------------------------------
      270  3.0845E+03  2.6993E+02 -1.2560E+03 -2.2689E+03 -1.6730E+03  0.0000E+00  2.3155E+03  3.7046E+02  0.0000E+00
 270.000f  2.5731E+03  0.0000E+00  3.2089E+03 -1.7934E+04  1.6631E+03  0.0000E+00  0.0000E+00  1.9480E+04  0.0000E+00
  21.987s  6.5704E+04  0.0000E+00  0.0000E+00  0.0000E+00  9.0000E+01  9.0000E+01  9.0000E+01  0.0000E+00  9.2862E-01

  rolling  3.0870E+03  2.7721E+02 -1.1120E+03 -2.2102E+03 -1.6704E+03  0.0000E+00  2.3942E+03  3.7440E+02  0.0000E+00
 averages  3.5880E+03  0.0000E+00  9.9249E+02 -1.8813E+04  1.6600E+03  0.0000E+00  0.0000E+00  1.8146E+04  0.0000E+00
           6.5704E+04  0.0000E+00  0.0000E+00  0.0000E+00  9.0000E+01  9.0000E+01  9.0000E+01  0.0000E+00  1.7548E+00
 ------------------------------------------------------------------------------------------------------------------------
      280  3.0850E+03  2.6241E+02 -1.1971E+03 -2.2417E+03 -1.6771E+03  0.0000E+00  2.3579E+03  3.6382E+02  0.0000E+00
 280.000f  3.4016E+03  0.0000E+00  4.9071E+02 -1.8279E+04  1.6650E+03  0.0000E+00  0.0000E+00  1.7104E+04  0.0000E+00
  22.787s  6.5704E+04  0.0000E+00  0.0000E+00  0.0000E+00  9.0000E+01  9.0000E+01  9.0000E+01  0.0000E+00  1.8173E+00

  rolling  3.0865E+03  2.7488E+02 -1.1371E+03 -2.2185E+03 -1.6714E+03  0.0000E+00  2.3793E+03  3.7352E+02  0.0000E+00
 averages  3.4985E+03  0.0000E+00  1.0588E+03 -1.8687E+04  1.6614E+03  0.0000E+00  0.0000E+00  1.8085E+04  0.0000E+00
           6.5704E+04  0.0000E+00  0.0000E+00  0.0000E+00  9.0000E+01  9.0000E+01  9.0000E+01  0.0000E+00  1.7141E+00
 ------------------------------------------------------------------------------------------------------------------------
      290  3.0845E+03  2.6854E+02 -1.2821E+03 -2.3100E+03 -1.6805E+03  0.0000E+00  2.3491E+03  3.5923E+02  0.0000E+00
 290.000f  2.3979E+03  0.0000E+00  3.5810E+03 -1.7358E+04  1.6671E+03  0.0000E+00  0.0000E+00  1.9272E+04  0.0000E+00
  23.499s  6.5704E+04  0.0000E+00  0.0000E+00  0.0000E+00  9.0000E+01  9.0000E+01  9.0000E+01  0.0000E+00  7.8873E-01

  rolling  3.0861E+03  2.7321E+02 -1.1645E+03 -2.2264E+03 -1.6727E+03  0.0000E+00  2.3619E+03  3.7263E+02  0.0000E+00
 averages  3.3729E+03  0.0000E+00  1.2628E+03 -1.8565E+04  1.6629E+03  0.0000E+00  0.0000E+00  1.8165E+04  0.0000E+00
           6.5704E+04  0.0000E+00  0.0000E+00  0.0000E+00  9.0000E+01  9.0000E+01  9.0000E+01  0.0000E+00  1.6305E+00
 ------------------------------------------------------------------------------------------------------------------------
      300  3.0839E+03  2.6998E+02 -1.3105E+03 -2.3073E+03 -1.6858E+03  0.0000E+00  2.3249E+03  3.5773E+02  0.0000E+00
 300.000f  3.1135E+03  0.0000E+00  1.4270E+03 -1.7389E+04  1.6706E+03  0.0000E+00  0.0000E+00  1.7145E+04  0.0000E+00
  24.293s  6.5704E+04  0.0000E+00  0.0000E+00  0.0000E+00  9.0000E+01  9.0000E+01  9.0000E+01  0.0000E+00  1.5489E+00

  rolling  3.0856E+03  2.7168E+02 -1.1881E+03 -2.2372E+03 -1.6743E+03  0.0000E+00  2.3519E+03  3.7152E+02  0.0000E+00
 averages  3.2632E+03  0.0000E+00  1.4380E+03 -1.8403E+04  1.6643E+03  0.0000E+00  0.0000E+00  1.8177E+04  0.0000E+00
           6.5704E+04  0.0000E+00  0.0000E+00  0.0000E+00  9.0000E+01  9.0000E+01  9.0000E+01  0.0000E+00  1.5580E+00
 ------------------------------------------------------------------------------------------------------------------------
      310  3.0848E+03  2.6035E+02 -1.2117E+03 -2.2786E+03 -1.6907E+03  0.0000E+00  2.3994E+03  3.5813E+02  0.0000E+00
 310.000f  2.3728E+03  0.0000E+00  3.4211E+03 -1.7732E+04  1.6754E+03  0.0000E+00  0.0000E+00  1.9477E+04  0.0000E+00
  25.073s  6.5704E+04  0.0000E+00  0.0000E+00  0.0000E+00  9.0000E+01  9.0000E+01  9.0000E+01  0.0000E+00  7.8224E-01

  rolling  3.0852E+03  2.7086E+02 -1.2139E+03 -2.2453E+03 -1.6761E+03  0.0000E+00  2.3377E+03  3.6979E+02  0.0000E+00
 averages  3.1641E+03  0.0000E+00  1.6130E+03 -1.8275E+04  1.6658E+03  0.0000E+00  0.0000E+00  1.8223E+04  0.0000E+00
           6.5704E+04  0.0000E+00  0.0000E+00  0.0000E+00  9.0000E+01  9.0000E+01  9.0000E+01  0.0000E+00  1.4909E+00
 ------------------------------------------------------------------------------------------------------------------------
 ------------------------------------------------------------------------------------------------------------------------

     step     eng_tot    temp_tot     eng_cfg     eng_vdw     eng_cou     eng_bnd     eng_ang     eng_dih     eng_tet
 time          eng_pv    temp_rot     vir_cfg     vir_vdw     vir_cou     vir_bnd     vir_ang     vir_con     vir_tet
 cpu time      volume    temp_shl     eng_shl     vir_shl       alpha        beta       gamma     vir_pmf       press

 ------------------------------------------------------------------------------------------------------------------------
      320  3.0831E+03  2.6892E+02 -1.3076E+03 -2.2979E+03 -1.6948E+03  0.0000E+00  2.3282E+03  3.5698E+02  0.0000E+00
 320.000f  3.2287E+03  0.0000E+00  1.0325E+03 -1.7510E+04  1.6823E+03  0.0000E+00  0.0000E+00  1.6860E+04  0.0000E+00
  25.776s  6.5704E+04  0.0000E+00  0.0000E+00  0.0000E+00  9.0000E+01  9.0000E+01  9.0000E+01  0.0000E+00  1.6781E+00

  rolling  3.0847E+03  2.7054E+02 -1.2397E+03 -2.2580E+03 -1.6781E+03  0.0000E+00  2.3289E+03  3.6758E+02  0.0000E+00
 averages  3.0375E+03  0.0000E+00  1.8978E+03 -1.8090E+04  1.6673E+03  0.0000E+00  0.0000E+00  1.8320E+04  0.0000E+00
           6.5704E+04  0.0000E+00  0.0000E+00  0.0000E+00  9.0000E+01  9.0000E+01  9.0000E+01  0.0000E+00  1.3894E+00
 ------------------------------------------------------------------------------------------------------------------------
      330  3.0829E+03  2.6842E+02 -1.2975E+03 -2.2865E+03 -1.6998E+03  0.0000E+00  2.3311E+03  3.5772E+02  0.0000E+00
 330.000f  2.5215E+03  0.0000E+00  3.1568E+03 -1.7650E+04  1.6903E+03  0.0000E+00  0.0000E+00  1.9117E+04  0.0000E+00
  26.569s  6.5704E+04  0.0000E+00  0.0000E+00  0.0000E+00  9.0000E+01  9.0000E+01  9.0000E+01  0.0000E+00  9.3533E-01

  rolling  3.0843E+03  2.6980E+02 -1.2554E+03 -2.2656E+03 -1.6805E+03  0.0000E+00  2.3253E+03  3.6546E+02  0.0000E+00
 averages  3.0025E+03  0.0000E+00  1.9155E+03 -1.7974E+04  1.6694E+03  0.0000E+00  0.0000E+00  1.8220E+04  0.0000E+00
           6.5704E+04  0.0000E+00  0.0000E+00  0.0000E+00  9.0000E+01  9.0000E+01  9.0000E+01  0.0000E+00  1.3776E+00
 ------------------------------------------------------------------------------------------------------------------------
      340  3.0826E+03  2.6822E+02 -1.2851E+03 -2.2489E+03 -1.7047E+03  0.0000E+00  2.3104E+03  3.5804E+02  0.0000E+00
 340.000f  3.0344E+03  0.0000E+00  1.6447E+03 -1.8159E+04  1.6959E+03  0.0000E+00  0.0000E+00  1.8108E+04  0.0000E+00
  27.270s  6.5704E+04  0.0000E+00  0.0000E+00  0.0000E+00  9.0000E+01  9.0000E+01  9.0000E+01  0.0000E+00  1.4598E+00

  rolling  3.0839E+03  2.6962E+02 -1.2716E+03 -2.2711E+03 -1.6835E+03  0.0000E+00  2.3193E+03  3.6369E+02  0.0000E+00
 averages  2.8839E+03  0.0000E+00  2.2132E+03 -1.7888E+04  1.6722E+03  0.0000E+00  0.0000E+00  1.8429E+04  0.0000E+00
           6.5704E+04  0.0000E+00  0.0000E+00  0.0000E+00  9.0000E+01  9.0000E+01  9.0000E+01  0.0000E+00  1.2727E+00
 ------------------------------------------------------------------------------------------------------------------------
      350  3.0814E+03  2.7711E+02 -1.3672E+03 -2.2768E+03 -1.7059E+03  0.0000E+00  2.2547E+03  3.6073E+02  0.0000E+00
 350.000f  2.9540E+03  0.0000E+00  2.1237E+03 -1.7788E+04  1.6971E+03  0.0000E+00  0.0000E+00  1.8215E+04  0.0000E+00
  28.064s  6.5704E+04  0.0000E+00  0.0000E+00  0.0000E+00  9.0000E+01  9.0000E+01  9.0000E+01  0.0000E+00  1.3606E+00

  rolling  3.0836E+03  2.6946E+02 -1.2823E+03 -2.2738E+03 -1.6868E+03  0.0000E+00  2.3161E+03  3.6225E+02  0.0000E+00
 averages  2.9053E+03  0.0000E+00  2.1081E+03 -1.7842E+04  1.6754E+03  0.0000E+00  0.0000E+00  1.8275E+04  0.0000E+00
           6.5704E+04  0.0000E+00  0.0000E+00  0.0000E+00  9.0000E+01  9.0000E+01  9.0000E+01  0.0000E+00  1.3080E+00
 ------------------------------------------------------------------------------------------------------------------------
      360  3.0821E+03  2.7008E+02 -1.2690E+03 -2.2383E+03 -1.7073E+03  0.0000E+00  2.3123E+03  3.6425E+02  0.0000E+00
 360.000f  3.0549E+03  0.0000E+00  1.7327E+03 -1.8310E+04  1.6973E+03  0.0000E+00  0.0000E+00  1.8346E+04  0.0000E+00
  28.775s  6.5704E+04  0.0000E+00  0.0000E+00  0.0000E+00  9.0000E+01  9.0000E+01  9.0000E+01  0.0000E+00  1.4433E+00

  rolling  3.0833E+03  2.6924E+02 -1.2865E+03 -2.2757E+03 -1.6903E+03  0.0000E+00  2.3185E+03  3.6106E+02  0.0000E+00
 averages  2.8510E+03  0.0000E+00  2.2460E+03 -1.7810E+04  1.6788E+03  0.0000E+00  0.0000E+00  1.8377E+04  0.0000E+00
           6.5704E+04  0.0000E+00  0.0000E+00  0.0000E+00  9.0000E+01  9.0000E+01  9.0000E+01  0.0000E+00  1.2584E+00
 ------------------------------------------------------------------------------------------------------------------------
      370  3.0814E+03  2.7487E+02 -1.2953E+03 -2.2381E+03 -1.7094E+03  0.0000E+00  2.2874E+03  3.6491E+02  0.0000E+00
 370.000f  2.9685E+03  0.0000E+00  2.1741E+03 -1.8310E+04  1.6971E+03  0.0000E+00  0.0000E+00  1.8787E+04  0.0000E+00
  29.573s  6.5704E+04  0.0000E+00  0.0000E+00  0.0000E+00  9.0000E+01  9.0000E+01  9.0000E+01  0.0000E+00  1.3261E+00

  rolling  3.0829E+03  2.7009E+02 -1.2968E+03 -2.2749E+03 -1.6940E+03  0.0000E+00  2.3119E+03  3.6025E+02  0.0000E+00
 averages  2.8777E+03  0.0000E+00  2.1811E+03 -1.7817E+04  1.6823E+03  0.0000E+00  0.0000E+00  1.8316E+04  0.0000E+00
           6.5704E+04  0.0000E+00  0.0000E+00  0.0000E+00  9.0000E+01  9.0000E+01  9.0000E+01  0.0000E+00  1.2874E+00
 ------------------------------------------------------------------------------------------------------------------------
      380  3.0816E+03  2.7704E+02 -1.2875E+03 -2.2834E+03 -1.7099E+03  0.0000E+00  2.3399E+03  3.6594E+02  0.0000E+00
 380.000f  2.7472E+03  0.0000E+00  2.9795E+03 -1.7746E+04  1.6962E+03  0.0000E+00  0.0000E+00  1.9030E+04  0.0000E+00
  30.267s  6.5704E+04  0.0000E+00  0.0000E+00  0.0000E+00  9.0000E+01  9.0000E+01  9.0000E+01  0.0000E+00  1.0624E+00

  rolling  3.0827E+03  2.7085E+02 -1.3007E+03 -2.2765E+03 -1.6974E+03  0.0000E+00  2.3131E+03  3.6014E+02  0.0000E+00
 averages  2.8292E+03  0.0000E+00  2.3570E+03 -1.7796E+04  1.6855E+03  0.0000E+00  0.0000E+00  1.8467E+04  0.0000E+00
           6.5704E+04  0.0000E+00  0.0000E+00  0.0000E+00  9.0000E+01  9.0000E+01  9.0000E+01  0.0000E+00  1.2320E+00
 ------------------------------------------------------------------------------------------------------------------------
      390  3.0821E+03  2.7449E+02 -1.2231E+03 -2.2528E+03 -1.7108E+03  0.0000E+00  2.3721E+03  3.6832E+02  0.0000E+00
 390.000f  3.4203E+03  0.0000E+00  1.0144E+03 -1.8150E+04  1.6979E+03  0.0000E+00  0.0000E+00  1.7466E+04  0.0000E+00
  31.057s  6.5704E+04  0.0000E+00  0.0000E+00  0.0000E+00  9.0000E+01  9.0000E+01  9.0000E+01  0.0000E+00  1.7266E+00

  rolling  3.0824E+03  2.7144E+02 -1.2970E+03 -2.2745E+03 -1.7006E+03  0.0000E+00  2.3173E+03  3.6074E+02  0.0000E+00
 averages  2.8957E+03  0.0000E+00  2.2001E+03 -1.7825E+04  1.6886E+03  0.0000E+00  0.0000E+00  1.8337E+04  0.0000E+00
           6.5704E+04  0.0000E+00  0.0000E+00  0.0000E+00  9.0000E+01  9.0000E+01  9.0000E+01  0.0000E+00  1.2910E+00
 ------------------------------------------------------------------------------------------------------------------------
 ------------------------------------------------------------------------------------------------------------------------

     step     eng_tot    temp_tot     eng_cfg     eng_vdw     eng_cou     eng_bnd     eng_ang     eng_dih     eng_tet
 time          eng_pv    temp_rot     vir_cfg     vir_vdw     vir_cou     vir_bnd     vir_ang     vir_con     vir_tet
 cpu time      volume    temp_shl     eng_shl     vir_shl       alpha        beta       gamma     vir_pmf       press

 ------------------------------------------------------------------------------------------------------------------------
      400  3.0812E+03  2.8019E+02 -1.2455E+03 -2.2710E+03 -1.7125E+03  0.0000E+00  2.3690E+03  3.6892E+02  0.0000E+00
 400.000f  2.5424E+03  0.0000E+00  3.8910E+03 -1.7919E+04  1.7016E+03  0.0000E+00  0.0000E+00  2.0108E+04  0.0000E+00
  31.852s  6.5704E+04  0.0000E+00  0.0000E+00  0.0000E+00  9.0000E+01  9.0000E+01  9.0000E+01  0.0000E+00  7.6908E-01

  rolling  3.0822E+03  2.7244E+02 -1.2926E+03 -2.2698E+03 -1.7034E+03  0.0000E+00  2.3189E+03  3.6174E+02  0.0000E+00
 averages  2.8777E+03  0.0000E+00  2.3218E+03 -1.7891E+04  1.6918E+03  0.0000E+00  0.0000E+00  1.8521E+04  0.0000E+00
           6.5704E+04  0.0000E+00  0.0000E+00  0.0000E+00  9.0000E+01  9.0000E+01  9.0000E+01  0.0000E+00  1.2562E+00
 ------------------------------------------------------------------------------------------------------------------------
      410  3.0822E+03  2.8125E+02 -1.2117E+03 -2.2665E+03 -1.7125E+03  0.0000E+00  2.4007E+03  3.6663E+02  0.0000E+00
 410.000f  3.7049E+03  0.0000E+00  5.6251E+02 -1.8002E+04  1.7032E+03  0.0000E+00  0.0000E+00  1.6861E+04  0.0000E+00
  32.559s  6.5704E+04  0.0000E+00  0.0000E+00  0.0000E+00  9.0000E+01  9.0000E+01  9.0000E+01  0.0000E+00  1.9350E+00

  rolling  3.0820E+03  2.7343E+02 -1.2829E+03 -2.2675E+03 -1.7058E+03  0.0000E+00  2.3276E+03  3.6276E+02  0.0000E+00
 averages  2.9445E+03  0.0000E+00  2.2048E+03 -1.7931E+04  1.6947E+03  0.0000E+00  0.0000E+00  1.8441E+04  0.0000E+00
           6.5704E+04  0.0000E+00  0.0000E+00  0.0000E+00  9.0000E+01  9.0000E+01  9.0000E+01  0.0000E+00  1.3045E+00
 ------------------------------------------------------------------------------------------------------------------------
      420  3.0826E+03  2.8344E+02 -1.1868E+03 -2.2666E+03 -1.7113E+03  0.0000E+00  2.4256E+03  3.6554E+02  0.0000E+00
 420.000f  2.7437E+03  0.0000E+00  3.6401E+03 -1.7999E+04  1.7049E+03  0.0000E+00  0.0000E+00  1.9934E+04  0.0000E+00
  33.360s  6.5704E+04  0.0000E+00  0.0000E+00  0.0000E+00  9.0000E+01  9.0000E+01  9.0000E+01  0.0000E+00  8.8100E-01

  rolling  3.0819E+03  2.7514E+02 -1.2759E+03 -2.2652E+03 -1.7077E+03  0.0000E+00  2.3333E+03  3.6366E+02  0.0000E+00
 averages  2.9978E+03  0.0000E+00  2.1589E+03 -1.7970E+04  1.6972E+03  0.0000E+00  0.0000E+00  1.8432E+04  0.0000E+00
           6.5704E+04  0.0000E+00  0.0000E+00  0.0000E+00  9.0000E+01  9.0000E+01  9.0000E+01  0.0000E+00  1.3334E+00
 ------------------------------------------------------------------------------------------------------------------------
      430  3.0823E+03  2.8671E+02 -1.1719E+03 -2.2285E+03 -1.7109E+03  0.0000E+00  2.4018E+03  3.6577E+02  0.0000E+00
 430.000f  3.7565E+03  0.0000E+00  8.2495E+02 -1.8531E+04  1.7051E+03  0.0000E+00  0.0000E+00  1.7651E+04  0.0000E+00
  34.061s  6.5704E+04  0.0000E+00  0.0000E+00  0.0000E+00  9.0000E+01  9.0000E+01  9.0000E+01  0.0000E+00  1.8851E+00

  rolling  3.0818E+03  2.7720E+02 -1.2680E+03 -2.2613E+03 -1.7091E+03  0.0000E+00  2.3379E+03  3.6451E+02  0.0000E+00
 averages  3.0086E+03  0.0000E+00  2.2626E+03 -1.8031E+04  1.6990E+03  0.0000E+00  0.0000E+00  1.8595E+04  0.0000E+00
           6.5704E+04  0.0000E+00  0.0000E+00  0.0000E+00  9.0000E+01  9.0000E+01  9.0000E+01  0.0000E+00  1.3130E+00
 ------------------------------------------------------------------------------------------------------------------------
      440  3.0827E+03  2.8653E+02 -1.1162E+03 -2.2535E+03 -1.7094E+03  0.0000E+00  2.4801E+03  3.6656E+02  0.0000E+00
 440.000f  3.1702E+03  0.0000E+00  2.7408E+03 -1.8216E+04  1.7043E+03  0.0000E+00  0.0000E+00  1.9252E+04  0.0000E+00
  34.869s  6.5704E+04  0.0000E+00  0.0000E+00  0.0000E+00  9.0000E+01  9.0000E+01  9.0000E+01  0.0000E+00  1.2172E+00

  rolling  3.0817E+03  2.7896E+02 -1.2523E+03 -2.2580E+03 -1.7098E+03  0.0000E+00  2.3503E+03  3.6532E+02  0.0000E+00
 averages  3.1171E+03  0.0000E+00  2.0800E+03 -1.8086E+04  1.7001E+03  0.0000E+00  0.0000E+00  1.8466E+04  0.0000E+00
           6.5704E+04  0.0000E+00  0.0000E+00  0.0000E+00  9.0000E+01  9.0000E+01  9.0000E+01  0.0000E+00  1.3898E+00
 ------------------------------------------------------------------------------------------------------------------------
      450  3.0825E+03  2.8961E+02 -1.0949E+03 -2.1850E+03 -1.7080E+03  0.0000E+00  2.4283E+03  3.6969E+02  0.0000E+00
 450.000f  4.2554E+03  0.0000E+00 -2.8324E+02 -1.9145E+04  1.7035E+03  0.0000E+00  0.0000E+00  1.7158E+04  0.0000E+00
  35.669s  6.5704E+04  0.0000E+00  0.0000E+00  0.0000E+00  9.0000E+01  9.0000E+01  9.0000E+01  0.0000E+00  2.2926E+00

  rolling  3.0817E+03  2.8091E+02 -1.2344E+03 -2.2543E+03 -1.7101E+03  0.0000E+00  2.3637E+03  3.6621E+02  0.0000E+00
 averages  3.1539E+03  0.0000E+00  2.1289E+03 -1.8149E+04  1.7008E+03  0.0000E+00  0.0000E+00  1.8577E+04  0.0000E+00
           6.5704E+04  0.0000E+00  0.0000E+00  0.0000E+00  9.0000E+01  9.0000E+01  9.0000E+01  0.0000E+00  1.3875E+00
 ------------------------------------------------------------------------------------------------------------------------
      460  3.0824E+03  2.9438E+02 -1.0899E+03 -2.2016E+03 -1.7071E+03  0.0000E+00  2.4464E+03  3.7238E+02  0.0000E+00
 460.000f  3.4050E+03  0.0000E+00  2.5428E+03 -1.8935E+04  1.6998E+03  0.0000E+00  0.0000E+00  1.9779E+04  0.0000E+00
  36.480s  6.5704E+04  0.0000E+00  0.0000E+00  0.0000E+00  9.0000E+01  9.0000E+01  9.0000E+01  0.0000E+00  1.3456E+00

  rolling  3.0817E+03  2.8330E+02 -1.2178E+03 -2.2464E+03 -1.7102E+03  0.0000E+00  2.3718E+03  3.6707E+02  0.0000E+00
 averages  3.2693E+03  0.0000E+00  1.9629E+03 -1.8266E+04  1.7013E+03  0.0000E+00  0.0000E+00  1.8528E+04  0.0000E+00
           6.5704E+04  0.0000E+00  0.0000E+00  0.0000E+00  9.0000E+01  9.0000E+01  9.0000E+01  0.0000E+00  1.4634E+00
 ------------------------------------------------------------------------------------------------------------------------
      470  3.0820E+03  2.9970E+02 -1.0900E+03 -2.1666E+03 -1.7079E+03  0.0000E+00  2.4107E+03  3.7382E+02  0.0000E+00
 470.000f  4.4805E+03  0.0000E+00 -3.9437E+02 -1.9434E+04  1.6971E+03  0.0000E+00  0.0000E+00  1.7342E+04  0.0000E+00
  37.182s  6.5704E+04  0.0000E+00  0.0000E+00  0.0000E+00  9.0000E+01  9.0000E+01  9.0000E+01  0.0000E+00  2.4077E+00

  rolling  3.0818E+03  2.8548E+02 -1.1953E+03 -2.2428E+03 -1.7101E+03  0.0000E+00  2.3897E+03  3.6793E+02  0.0000E+00
 averages  3.3182E+03  0.0000E+00  2.0022E+03 -1.8330E+04  1.7013E+03  0.0000E+00  0.0000E+00  1.8631E+04  0.0000E+00
           6.5704E+04  0.0000E+00  0.0000E+00  0.0000E+00  9.0000E+01  9.0000E+01  9.0000E+01  0.0000E+00  1.4662E+00
 ------------------------------------------------------------------------------------------------------------------------
 ------------------------------------------------------------------------------------------------------------------------

     step     eng_tot    temp_tot     eng_cfg     eng_vdw     eng_cou     eng_bnd     eng_ang     eng_dih     eng_tet
 time          eng_pv    temp_rot     vir_cfg     vir_vdw     vir_cou     vir_bnd     vir_ang     vir_con     vir_tet
 cpu time      volume    temp_shl     eng_shl     vir_shl       alpha        beta       gamma     vir_pmf       press

 ------------------------------------------------------------------------------------------------------------------------
      480  3.0826E+03  2.9903E+02 -1.0236E+03 -2.1624E+03 -1.7070E+03  0.0000E+00  2.4702E+03  3.7566E+02  0.0000E+00
 480.000f  4.0688E+03  0.0000E+00  1.0035E+03 -1.9503E+04  1.6937E+03  0.0000E+00  0.0000E+00  1.8813E+04  0.0000E+00
  37.975s  6.5704E+04  0.0000E+00  0.0000E+00  0.0000E+00  9.0000E+01  9.0000E+01  9.0000E+01  0.0000E+00  1.9163E+00

  rolling  3.0819E+03  2.8783E+02 -1.1717E+03 -2.2313E+03 -1.7099E+03  0.0000E+00  2.4006E+03  3.6886E+02  0.0000E+00
 averages  3.5142E+03  0.0000E+00  1.6128E+03 -1.8500E+04  1.7012E+03  0.0000E+00  0.0000E+00  1.8412E+04  0.0000E+00
           6.5704E+04  0.0000E+00  0.0000E+00  0.0000E+00  9.0000E+01  9.0000E+01  9.0000E+01  0.0000E+00  1.6195E+00
 ------------------------------------------------------------------------------------------------------------------------
      490  3.0830E+03  2.9921E+02 -9.6642E+02 -2.1522E+03 -1.7059E+03  0.0000E+00  2.5133E+03  3.7838E+02  0.0000E+00
 490.000f  4.3155E+03  0.0000E+00  4.4479E+02 -1.9646E+04  1.6903E+03  0.0000E+00  0.0000E+00  1.8401E+04  0.0000E+00
  38.771s  6.5704E+04  0.0000E+00  0.0000E+00  0.0000E+00  9.0000E+01  9.0000E+01  9.0000E+01  0.0000E+00  2.1120E+00

  rolling  3.0820E+03  2.8998E+02 -1.1435E+03 -2.2221E+03 -1.7095E+03  0.0000E+00  2.4182E+03  3.6990E+02  0.0000E+00
 averages  3.5603E+03  0.0000E+00  1.6763E+03 -1.8637E+04  1.7008E+03  0.0000E+00  0.0000E+00  1.8613E+04  0.0000E+00
           6.5704E+04  0.0000E+00  0.0000E+00  0.0000E+00  9.0000E+01  9.0000E+01  9.0000E+01  0.0000E+00  1.6137E+00
 ------------------------------------------------------------------------------------------------------------------------
      500  3.0839E+03  3.0071E+02 -9.2304E+02 -2.1550E+03 -1.7044E+03  0.0000E+00  2.5558E+03  3.8056E+02  0.0000E+00
 500.000f  4.6031E+03  0.0000E+00 -2.0642E+02 -1.9598E+04  1.6852E+03  0.0000E+00  0.0000E+00  1.7706E+04  0.0000E+00
  39.573s  6.5704E+04  0.0000E+00  0.0000E+00  0.0000E+00  9.0000E+01  9.0000E+01  9.0000E+01  0.0000E+00  2.3499E+00

  rolling  3.0822E+03  2.9216E+02 -1.1136E+03 -2.2112E+03 -1.7088E+03  0.0000E+00  2.4354E+03  3.7107E+02  0.0000E+00
 averages  3.7637E+03  0.0000E+00  1.2748E+03 -1.8799E+04  1.6995E+03  0.0000E+00  0.0000E+00  1.8374E+04  0.0000E+00
           6.5704E+04  0.0000E+00  0.0000E+00  0.0000E+00  9.0000E+01  9.0000E+01  9.0000E+01  0.0000E+00  1.7699E+00
 ------------------------------------------------------------------------------------------------------------------------
      510  3.0840E+03  3.0603E+02 -9.2234E+02 -2.1805E+03 -1.7019E+03  0.0000E+00  2.5812E+03  3.7885E+02  0.0000E+00
 510.000f  4.2217E+03  0.0000E+00  1.2298E+03 -1.9261E+04  1.6810E+03  0.0000E+00  0.0000E+00  1.8810E+04  0.0000E+00
  40.285s  6.5704E+04  0.0000E+00  0.0000E+00  0.0000E+00  9.0000E+01  9.0000E+01  9.0000E+01  0.0000E+00  1.8906E+00

  rolling  3.0824E+03  2.9474E+02 -1.0864E+03 -2.2022E+03 -1.7079E+03  0.0000E+00  2.4514E+03  3.7226E+02  0.0000E+00
 averages  3.8391E+03  0.0000E+00  1.2708E+03 -1.8931E+04  1.6975E+03  0.0000E+00  0.0000E+00  1.8504E+04  0.0000E+00
           6.5704E+04  0.0000E+00  0.0000E+00  0.0000E+00  9.0000E+01  9.0000E+01  9.0000E+01  0.0000E+00  1.7909E+00
 ------------------------------------------------------------------------------------------------------------------------
      520  3.0848E+03  3.0902E+02 -8.9708E+02 -2.1499E+03 -1.6972E+03  0.0000E+00  2.5727E+03  3.7735E+02  0.0000E+00
 520.000f  4.8759E+03  0.0000E+00 -4.9426E+02 -1.9655E+04  1.6755E+03  0.0000E+00  0.0000E+00  1.7486E+04  0.0000E+00
  41.091s  6.5704E+04  0.0000E+00  0.0000E+00  0.0000E+00  9.0000E+01  9.0000E+01  9.0000E+01  0.0000E+00  2.5130E+00

  rolling  3.0826E+03  2.9717E+02 -1.0563E+03 -2.1906E+03 -1.7066E+03  0.0000E+00  2.4676E+03  3.7340E+02  0.0000E+00
 averages  4.0077E+03  0.0000E+00  9.8759E+02 -1.9096E+04  1.6950E+03  0.0000E+00  0.0000E+00  1.8388E+04  0.0000E+00
           6.5704E+04  0.0000E+00  0.0000E+00  0.0000E+00  9.0000E+01  9.0000E+01  9.0000E+01  0.0000E+00  1.9078E+00
 ------------------------------------------------------------------------------------------------------------------------
      530  3.0855E+03  3.0795E+02 -8.3027E+02 -2.1809E+03 -1.6928E+03  0.0000E+00  2.6623E+03  3.8119E+02  0.0000E+00
 530.000f  4.1493E+03  0.0000E+00  1.8273E+03 -1.9234E+04  1.6695E+03  0.0000E+00  0.0000E+00  1.9392E+04  0.0000E+00
  41.895s  6.5704E+04  0.0000E+00  0.0000E+00  0.0000E+00  9.0000E+01  9.0000E+01  9.0000E+01  0.0000E+00  1.6973E+00

  rolling  3.0829E+03  2.9968E+02 -1.0265E+03 -2.1824E+03 -1.7050E+03  0.0000E+00  2.4862E+03  3.7472E+02  0.0000E+00
 averages  4.1118E+03  0.0000E+00  9.0112E+02 -1.9213E+04  1.6916E+03  0.0000E+00  0.0000E+00  1.8422E+04  0.0000E+00
           6.5704E+04  0.0000E+00  0.0000E+00  0.0000E+00  9.0000E+01  9.0000E+01  9.0000E+01  0.0000E+00  1.9568E+00
 ------------------------------------------------------------------------------------------------------------------------
      540  3.0853E+03  3.1142E+02 -8.1723E+02 -2.0928E+03 -1.6906E+03  0.0000E+00  2.5803E+03  3.8586E+02  0.0000E+00
 540.000f  5.4912E+03  0.0000E+00 -1.9700E+03 -2.0407E+04  1.6678E+03  0.0000E+00  0.0000E+00  1.6769E+04  0.0000E+00
  42.603s  6.5704E+04  0.0000E+00  0.0000E+00  0.0000E+00  9.0000E+01  9.0000E+01  9.0000E+01  0.0000E+00  3.0445E+00

  rolling  3.0832E+03  3.0185E+02 -9.9301E+02 -2.1718E+03 -1.7031E+03  0.0000E+00  2.5054E+03  3.7655E+02  0.0000E+00
 averages  4.2714E+03  0.0000E+00  6.4126E+02 -1.9360E+04  1.6880E+03  0.0000E+00  0.0000E+00  1.8313E+04  0.0000E+00
           6.5704E+04  0.0000E+00  0.0000E+00  0.0000E+00  9.0000E+01  9.0000E+01  9.0000E+01  0.0000E+00  2.0637E+00
 ------------------------------------------------------------------------------------------------------------------------
      550  3.0858E+03  3.1684E+02 -8.2755E+02 -2.1335E+03 -1.6886E+03  0.0000E+00  2.6080E+03  3.8655E+02  0.0000E+00
 550.000f  4.1836E+03  0.0000E+00  2.2168E+03 -1.9884E+04  1.6687E+03  0.0000E+00  0.0000E+00  2.0432E+04  0.0000E+00
  43.395s  6.5704E+04  0.0000E+00  0.0000E+00  0.0000E+00  9.0000E+01  9.0000E+01  9.0000E+01  0.0000E+00  1.6292E+00

  rolling  3.0835E+03  3.0447E+02 -9.6477E+02 -2.1614E+03 -1.7012E+03  0.0000E+00  2.5194E+03  3.7842E+02  0.0000E+00
 averages  4.3758E+03  0.0000E+00  5.5499E+02 -1.9504E+04  1.6844E+03  0.0000E+00  0.0000E+00  1.8375E+04  0.0000E+00
           6.5704E+04  0.0000E+00  0.0000E+00  0.0000E+00  9.0000E+01  9.0000E+01  9.0000E+01  0.0000E+00  2.1135E+00
 ------------------------------------------------------------------------------------------------------------------------
 ------------------------------------------------------------------------------------------------------------------------

     step     eng_tot    temp_tot     eng_cfg     eng_vdw     eng_cou     eng_bnd     eng_ang     eng_dih     eng_tet
 time          eng_pv    temp_rot     vir_cfg     vir_vdw     vir_cou     vir_bnd     vir_ang     vir_con     vir_tet
 cpu time      volume    temp_shl     eng_shl     vir_shl       alpha        beta       gamma     vir_pmf       press

 ------------------------------------------------------------------------------------------------------------------------
      560  3.0852E+03  3.2906E+02 -9.1700E+02 -2.1246E+03 -1.6874E+03  0.0000E+00  2.5128E+03  3.8218E+02  0.0000E+00
 560.000f  5.5467E+03  0.0000E+00 -1.4758E+03 -2.0021E+04  1.6707E+03  0.0000E+00  0.0000E+00  1.6875E+04  0.0000E+00
  44.185s  6.5704E+04  0.0000E+00  0.0000E+00  0.0000E+00  9.0000E+01  9.0000E+01  9.0000E+01  0.0000E+00  3.0062E+00

  rolling  3.0838E+03  3.0726E+02 -9.3940E+02 -2.1559E+03 -1.6993E+03  0.0000E+00  2.5360E+03  3.7974E+02  0.0000E+00
 averages  4.4702E+03  0.0000E+00  4.9987E+02 -1.9583E+04  1.6812E+03  0.0000E+00  0.0000E+00  1.8402E+04  0.0000E+00
           6.5704E+04  0.0000E+00  0.0000E+00  0.0000E+00  9.0000E+01  9.0000E+01  9.0000E+01  0.0000E+00  2.1538E+00
 ------------------------------------------------------------------------------------------------------------------------
      570  3.0854E+03  3.2688E+02 -8.5466E+02 -2.1363E+03 -1.6878E+03  0.0000E+00  2.5913E+03  3.7815E+02  0.0000E+00
 570.000f  4.5158E+03  0.0000E+00  1.6854E+03 -1.9867E+04  1.6765E+03  0.0000E+00  0.0000E+00  1.9876E+04  0.0000E+00
  44.890s  6.5704E+04  0.0000E+00  0.0000E+00  0.0000E+00  9.0000E+01  9.0000E+01  9.0000E+01  0.0000E+00  1.8901E+00

  rolling  3.0842E+03  3.1007E+02 -9.1589E+02 -2.1495E+03 -1.6973E+03  0.0000E+00  2.5505E+03  3.8036E+02  0.0000E+00
 averages  4.6142E+03  0.0000E+00  2.9133E+02 -1.9672E+04  1.6788E+03  0.0000E+00  0.0000E+00  1.8284E+04  0.0000E+00
           6.5704E+04  0.0000E+00  0.0000E+00  0.0000E+00  9.0000E+01  9.0000E+01  9.0000E+01  0.0000E+00  2.2477E+00
 ------------------------------------------------------------------------------------------------------------------------
      580  3.0858E+03  3.2441E+02 -7.9535E+02 -2.0909E+03 -1.6874E+03  0.0000E+00  2.6070E+03  3.7592E+02  0.0000E+00
 580.000f  5.4411E+03  0.0000E+00 -1.0471E+03 -2.0480E+04  1.6815E+03  0.0000E+00  0.0000E+00  1.7751E+04  0.0000E+00
  45.685s  6.5704E+04  0.0000E+00  0.0000E+00  0.0000E+00  9.0000E+01  9.0000E+01  9.0000E+01  0.0000E+00  2.8219E+00

  rolling  3.0846E+03  3.1273E+02 -8.9306E+02 -2.1451E+03 -1.6953E+03  0.0000E+00  2.5668E+03  3.8052E+02  0.0000E+00
 averages  4.6259E+03  0.0000E+00  4.6930E+02 -1.9733E+04  1.6772E+03  0.0000E+00  0.0000E+00  1.8525E+04  0.0000E+00
           6.5704E+04  0.0000E+00  0.0000E+00  0.0000E+00  9.0000E+01  9.0000E+01  9.0000E+01  0.0000E+00  2.2059E+00
 ------------------------------------------------------------------------------------------------------------------------
      590  3.0862E+03  3.2516E+02 -7.7713E+02 -2.1237E+03 -1.6865E+03  0.0000E+00  2.6553E+03  3.7775E+02  0.0000E+00
 590.000f  4.8972E+03  0.0000E+00  6.8036E+02 -2.0038E+04  1.6854E+03  0.0000E+00  0.0000E+00  1.9033E+04  0.0000E+00
  46.484s  6.5704E+04  0.0000E+00  0.0000E+00  0.0000E+00  9.0000E+01  9.0000E+01  9.0000E+01  0.0000E+00  2.2267E+00

  rolling  3.0849E+03  3.1499E+02 -8.6893E+02 -2.1376E+03 -1.6933E+03  0.0000E+00  2.5815E+03  3.8045E+02  0.0000E+00
 averages  4.7912E+03  0.0000E+00  1.6912E+02 -1.9834E+04  1.6764E+03  0.0000E+00  0.0000E+00  1.8327E+04  0.0000E+00
           6.5704E+04  0.0000E+00  0.0000E+00  0.0000E+00  9.0000E+01  9.0000E+01  9.0000E+01  0.0000E+00  2.3274E+00
 ------------------------------------------------------------------------------------------------------------------------
      600  3.0876E+03  3.2375E+02 -7.3995E+02 -2.1249E+03 -1.6871E+03  0.0000E+00  2.6894E+03  3.8270E+02  0.0000E+00
 600.000f  5.2935E+03  0.0000E+00 -4.7391E+02 -2.0040E+04  1.6904E+03  0.0000E+00  0.0000E+00  1.7875E+04  0.0000E+00
  47.273s  6.5704E+04  0.0000E+00  0.0000E+00  0.0000E+00  9.0000E+01  9.0000E+01  9.0000E+01  0.0000E+00  2.6175E+00

  rolling  3.0853E+03  3.1732E+02 -8.4917E+02 -2.1354E+03 -1.6915E+03  0.0000E+00  2.5973E+03  3.8043E+02  0.0000E+00
 averages  4.7973E+03  0.0000E+00  3.3726E+02 -1.9865E+04  1.6764E+03  0.0000E+00  0.0000E+00  1.8525E+04  0.0000E+00
           6.5704E+04  0.0000E+00  0.0000E+00  0.0000E+00  9.0000E+01  9.0000E+01  9.0000E+01  0.0000E+00  2.2867E+00
 ------------------------------------------------------------------------------------------------------------------------
      610  3.0879E+03  3.2755E+02 -7.6704E+02 -2.1043E+03 -1.6865E+03  0.0000E+00  2.6305E+03  3.9322E+02  0.0000E+00
 610.000f  5.1019E+03  0.0000E+00  2.2619E+02 -2.0334E+04  1.6894E+03  0.0000E+00  0.0000E+00  1.8871E+04  0.0000E+00
  47.982s  6.5704E+04  0.0000E+00  0.0000E+00  0.0000E+00  9.0000E+01  9.0000E+01  9.0000E+01  0.0000E+00  2.4027E+00

  rolling  3.0857E+03  3.1954E+02 -8.3233E+02 -2.1289E+03 -1.6899E+03  0.0000E+00  2.6051E+03  3.8128E+02  0.0000E+00
 averages  4.9336E+03  0.0000E+00  9.9800E+01 -1.9957E+04  1.6772E+03  0.0000E+00  0.0000E+00  1.8380E+04  0.0000E+00
           6.5704E+04  0.0000E+00  0.0000E+00  0.0000E+00  9.0000E+01  9.0000E+01  9.0000E+01  0.0000E+00  2.3861E+00
 ------------------------------------------------------------------------------------------------------------------------
      620  3.0882E+03  3.2366E+02 -7.1758E+02 -2.1204E+03 -1.6839E+03  0.0000E+00  2.6786E+03  4.0816E+02  0.0000E+00
 620.000f  5.0057E+03  0.0000E+00  4.5147E+02 -2.0117E+04  1.6870E+03  0.0000E+00  0.0000E+00  1.8881E+04  0.0000E+00
  48.778s  6.5704E+04  0.0000E+00  0.0000E+00  0.0000E+00  9.0000E+01  9.0000E+01  9.0000E+01  0.0000E+00  2.2949E+00

  rolling  3.0862E+03  3.2096E+02 -8.1148E+02 -2.1242E+03 -1.6884E+03  0.0000E+00  2.6175E+03  3.8371E+02  0.0000E+00
 averages  4.9344E+03  0.0000E+00  2.3696E+02 -2.0025E+04  1.6781E+03  0.0000E+00  0.0000E+00  1.8584E+04  0.0000E+00
           6.5704E+04  0.0000E+00  0.0000E+00  0.0000E+00  9.0000E+01  9.0000E+01  9.0000E+01  0.0000E+00  2.3491E+00
 ------------------------------------------------------------------------------------------------------------------------
      630  3.0883E+03  3.2346E+02 -7.1463E+02 -2.0938E+03 -1.6844E+03  0.0000E+00  2.6516E+03  4.1197E+02  0.0000E+00
 630.000f  5.5446E+03  0.0000E+00 -1.1670E+03 -2.0485E+04  1.6890E+03  0.0000E+00  0.0000E+00  1.7629E+04  0.0000E+00
  49.583s  6.5704E+04  0.0000E+00  0.0000E+00  0.0000E+00  9.0000E+01  9.0000E+01  9.0000E+01  0.0000E+00  2.8564E+00

  rolling  3.0866E+03  3.2205E+02 -7.9235E+02 -2.1173E+03 -1.6874E+03  0.0000E+00  2.6254E+03  3.8695E+02  0.0000E+00
 averages  5.0686E+03  0.0000E+00 -4.8791E+01 -2.0125E+04  1.6797E+03  0.0000E+00  0.0000E+00  1.8397E+04  0.0000E+00
           6.5704E+04  0.0000E+00  0.0000E+00  0.0000E+00  9.0000E+01  9.0000E+01  9.0000E+01  0.0000E+00  2.4567E+00
 ------------------------------------------------------------------------------------------------------------------------
 ------------------------------------------------------------------------------------------------------------------------

     step     eng_tot    temp_tot     eng_cfg     eng_vdw     eng_cou     eng_bnd     eng_ang     eng_dih     eng_tet
 time          eng_pv    temp_rot     vir_cfg     vir_vdw     vir_cou     vir_bnd     vir_ang     vir_con     vir_tet
 cpu time      volume    temp_shl     eng_shl     vir_shl       alpha        beta       gamma     vir_pmf       press

 ------------------------------------------------------------------------------------------------------------------------
      640  3.0885E+03  3.2722E+02 -7.6076E+02 -2.1217E+03 -1.6833E+03  0.0000E+00  2.6393E+03  4.0495E+02  0.0000E+00
 640.000f  4.4029E+03  0.0000E+00  2.3244E+03 -2.0127E+04  1.6893E+03  0.0000E+00  0.0000E+00  2.0762E+04  0.0000E+00
  50.373s  6.5704E+04  0.0000E+00  0.0000E+00  0.0000E+00  9.0000E+01  9.0000E+01  9.0000E+01  0.0000E+00  1.6704E+00

  rolling  3.0869E+03  3.2338E+02 -7.8138E+02 -2.1150E+03 -1.6866E+03  0.0000E+00  2.6308E+03  3.8941E+02  0.0000E+00
 averages  5.0309E+03  0.0000E+00  1.6961E+02 -2.0166E+04  1.6818E+03  0.0000E+00  0.0000E+00  1.8654E+04  0.0000E+00
           6.5704E+04  0.0000E+00  0.0000E+00  0.0000E+00  9.0000E+01  9.0000E+01  9.0000E+01  0.0000E+00  2.3909E+00
 ------------------------------------------------------------------------------------------------------------------------
      650  3.0893E+03  3.2716E+02 -7.7160E+02 -2.1375E+03 -1.6826E+03  0.0000E+00  2.6509E+03  3.9755E+02  0.0000E+00
 650.000f  5.6878E+03  0.0000E+00 -1.5660E+03 -1.9931E+04  1.6893E+03  0.0000E+00  0.0000E+00  1.6676E+04  0.0000E+00
  51.073s  6.5704E+04  0.0000E+00  0.0000E+00  0.0000E+00  9.0000E+01  9.0000E+01  9.0000E+01  0.0000E+00  3.0232E+00

  rolling  3.0873E+03  3.2448E+02 -7.7374E+02 -2.1159E+03 -1.6859E+03  0.0000E+00  2.6373E+03  3.9077E+02  0.0000E+00
 averages  5.0817E+03  0.0000E+00  1.0007E+02 -2.0163E+04  1.6839E+03  0.0000E+00  0.0000E+00  1.8580E+04  0.0000E+00
           6.5704E+04  0.0000E+00  0.0000E+00  0.0000E+00  9.0000E+01  9.0000E+01  9.0000E+01  0.0000E+00  2.4234E+00
 ------------------------------------------------------------------------------------------------------------------------
      660  3.0893E+03  3.2476E+02 -7.6501E+02 -2.1116E+03 -1.6856E+03  0.0000E+00  2.6401E+03  3.9214E+02  0.0000E+00
 660.000f  4.8426E+03  0.0000E+00  8.5898E+02 -2.0262E+04  1.6953E+03  0.0000E+00  0.0000E+00  1.9425E+04  0.0000E+00
  51.868s  6.5704E+04  0.0000E+00  0.0000E+00  0.0000E+00  9.0000E+01  9.0000E+01  9.0000E+01  0.0000E+00  2.1615E+00

  rolling  3.0876E+03  3.2510E+02 -7.6709E+02 -2.1169E+03 -1.6855E+03  0.0000E+00  2.6437E+03  3.9173E+02  0.0000E+00
 averages  5.1065E+03  0.0000E+00  7.9033E+01 -2.0159E+04  1.6861E+03  0.0000E+00  0.0000E+00  1.8552E+04  0.0000E+00
           6.5704E+04  0.0000E+00  0.0000E+00  0.0000E+00  9.0000E+01  9.0000E+01  9.0000E+01  0.0000E+00  2.4354E+00
 ------------------------------------------------------------------------------------------------------------------------
      670  3.0893E+03  3.1996E+02 -7.3830E+02 -2.0741E+03 -1.6888E+03  0.0000E+00  2.6374E+03  3.8725E+02  0.0000E+00
[...]
   1.092m  6.5704E+04  0.0000E+00  0.0000E+00  0.0000E+00  9.0000E+01  9.0000E+01  9.0000E+01  0.0000E+00  2.2345E+00

  rolling  3.0878E+03  2.9321E+02 -9.9051E+02 -2.1465E+03 -1.6925E+03  0.0000E+00  2.4677E+03  3.8081E+02  0.0000E+00
 averages  4.4001E+03  0.0000E+00 -2.0800E+02 -1.9885E+04  1.7188E+03  0.0000E+00  0.0000E+00  1.7959E+04  0.0000E+00
           6.5704E+04  0.0000E+00  0.0000E+00  0.0000E+00  9.0000E+01  9.0000E+01  9.0000E+01  0.0000E+00  2.2937E+00
 ------------------------------------------------------------------------------------------------------------------------
      850  3.0860E+03  2.8609E+02 -1.1718E+03 -2.1932E+03 -1.6922E+03  0.0000E+00  2.3539E+03  3.5973E+02  0.0000E+00
 850.000f  3.8659E+03  0.0000E+00  4.6331E+02 -1.9206E+04  1.7263E+03  0.0000E+00  0.0000E+00  1.7943E+04  0.0000E+00
   1.105m  6.5704E+04  0.0000E+00  0.0000E+00  0.0000E+00  9.0000E+01  9.0000E+01  9.0000E+01  0.0000E+00  2.0062E+00

  rolling  3.0875E+03  2.9129E+02 -1.0163E+03 -2.1520E+03 -1.6929E+03  0.0000E+00  2.4508E+03  3.7769E+02  0.0000E+00
 averages  4.3199E+03  0.0000E+00 -1.4977E+02 -1.9805E+04  1.7211E+03  0.0000E+00  0.0000E+00  1.7935E+04  0.0000E+00
           6.5704E+04  0.0000E+00  0.0000E+00  0.0000E+00  9.0000E+01  9.0000E+01  9.0000E+01  0.0000E+00  2.2588E+00
 ------------------------------------------------------------------------------------------------------------------------
      860  3.0853E+03  2.8490E+02 -1.1922E+03 -2.2052E+03 -1.6949E+03  0.0000E+00  2.3456E+03  3.6223E+02  0.0000E+00
 860.000f  3.7843E+03  0.0000E+00  5.8220E+02 -1.9027E+04  1.7293E+03  0.0000E+00  0.0000E+00  1.7880E+04  0.0000E+00
   1.116m  6.5704E+04  0.0000E+00  0.0000E+00  0.0000E+00  9.0000E+01  9.0000E+01  9.0000E+01  0.0000E+00  1.9558E+00

  rolling  3.0872E+03  2.8947E+02 -1.0416E+03 -2.1607E+03 -1.6934E+03  0.0000E+00  2.4373E+03  3.7513E+02  0.0000E+00
 averages  4.2311E+03  0.0000E+00 -5.7931E+01 -1.9682E+04  1.7235E+03  0.0000E+00  0.0000E+00  1.7901E+04  0.0000E+00
           6.5704E+04  0.0000E+00  0.0000E+00  0.0000E+00  9.0000E+01  9.0000E+01  9.0000E+01  0.0000E+00  2.2131E+00
 ------------------------------------------------------------------------------------------------------------------------
      870  3.0849E+03  2.8211E+02 -1.1914E+03 -2.1973E+03 -1.6977E+03  0.0000E+00  2.3379E+03  3.6571E+02  0.0000E+00
 870.000f  3.9781E+03  0.0000E+00 -1.4897E+02 -1.9145E+04  1.7326E+03  0.0000E+00  0.0000E+00  1.7263E+04  0.0000E+00
   1.130m  6.5704E+04  0.0000E+00  0.0000E+00  0.0000E+00  9.0000E+01  9.0000E+01  9.0000E+01  0.0000E+00  2.1890E+00

  rolling  3.0870E+03  2.8749E+02 -1.0630E+03 -2.1663E+03 -1.6939E+03  0.0000E+00  2.4238E+03  3.7343E+02  0.0000E+00
 averages  4.1895E+03  0.0000E+00 -1.0502E+02 -1.9601E+04  1.7258E+03  0.0000E+00  0.0000E+00  1.7770E+04  0.0000E+00
           6.5704E+04  0.0000E+00  0.0000E+00  0.0000E+00  9.0000E+01  9.0000E+01  9.0000E+01  0.0000E+00  2.2145E+00
 ------------------------------------------------------------------------------------------------------------------------
 ------------------------------------------------------------------------------------------------------------------------

     step     eng_tot    temp_tot     eng_cfg     eng_vdw     eng_cou     eng_bnd     eng_ang     eng_dih     eng_tet
 time          eng_pv    temp_rot     vir_cfg     vir_vdw     vir_cou     vir_bnd     vir_ang     vir_con     vir_tet
 cpu time      volume    temp_shl     eng_shl     vir_shl       alpha        beta       gamma     vir_pmf       press

 ------------------------------------------------------------------------------------------------------------------------
      880  3.0844E+03  2.8026E+02 -1.1969E+03 -2.1974E+03 -1.7030E+03  0.0000E+00  2.3348E+03  3.6878E+02  0.0000E+00
 880.000f  3.5726E+03  0.0000E+00  9.5031E+02 -1.9120E+04  1.7380E+03  0.0000E+00  0.0000E+00  1.8333E+04  0.0000E+00
   1.141m  6.5704E+04  0.0000E+00  0.0000E+00  0.0000E+00  9.0000E+01  9.0000E+01  9.0000E+01  0.0000E+00  1.7926E+00

  rolling  3.0867E+03  2.8577E+02 -1.0847E+03 -2.1712E+03 -1.6948E+03  0.0000E+00  2.4090E+03  3.7226E+02  0.0000E+00
 averages  4.1109E+03  0.0000E+00 -2.8220E+01 -1.9527E+04  1.7279E+03  0.0000E+00  0.0000E+00  1.7771E+04  0.0000E+00
           6.5704E+04  0.0000E+00  0.0000E+00  0.0000E+00  9.0000E+01  9.0000E+01  9.0000E+01  0.0000E+00  2.1747E+00
 ------------------------------------------------------------------------------------------------------------------------
      890  3.0839E+03  2.8112E+02 -1.2277E+03 -2.2056E+03 -1.7080E+03  0.0000E+00  2.3139E+03  3.7205E+02  0.0000E+00
 890.000f  3.5608E+03  0.0000E+00  9.4046E+02 -1.9028E+04  1.7421E+03  0.0000E+00  0.0000E+00  1.8227E+04  0.0000E+00
   1.154m  6.5704E+04  0.0000E+00  0.0000E+00  0.0000E+00  9.0000E+01  9.0000E+01  9.0000E+01  0.0000E+00  1.8026E+00

  rolling  3.0864E+03  2.8420E+02 -1.1053E+03 -2.1793E+03 -1.6959E+03  0.0000E+00  2.3987E+03  3.7122E+02  0.0000E+00
 averages  4.0172E+03  0.0000E+00  1.0573E+02 -1.9411E+04  1.7297E+03  0.0000E+00  0.0000E+00  1.7787E+04  0.0000E+00
           6.5704E+04  0.0000E+00  0.0000E+00  0.0000E+00  9.0000E+01  9.0000E+01  9.0000E+01  0.0000E+00  2.1163E+00
 ------------------------------------------------------------------------------------------------------------------------
      900  3.0840E+03  2.7864E+02 -1.2172E+03 -2.2291E+03 -1.7104E+03  0.0000E+00  2.3460E+03  3.7621E+02  0.0000E+00
 900.000f  3.3073E+03  0.0000E+00  1.5968E+03 -1.8686E+04  1.7435E+03  0.0000E+00  0.0000E+00  1.8539E+04  0.0000E+00
   1.166m  6.5704E+04  0.0000E+00  0.0000E+00  0.0000E+00  9.0000E+01  9.0000E+01  9.0000E+01  0.0000E+00  1.5554E+00

  rolling  3.0861E+03  2.8289E+02 -1.1256E+03 -2.1870E+03 -1.6973E+03  0.0000E+00  2.3883E+03  3.7027E+02  0.0000E+00
 averages  3.9375E+03  0.0000E+00  2.1254E+02 -1.9299E+04  1.7312E+03  0.0000E+00  0.0000E+00  1.7780E+04  0.0000E+00
           6.5704E+04  0.0000E+00  0.0000E+00  0.0000E+00  9.0000E+01  9.0000E+01  9.0000E+01  0.0000E+00  2.0692E+00
 ------------------------------------------------------------------------------------------------------------------------
      910  3.0840E+03  2.7809E+02 -1.2238E+03 -2.2371E+03 -1.7138E+03  0.0000E+00  2.3521E+03  3.7504E+02  0.0000E+00
 910.000f  3.4459E+03  0.0000E+00  1.1315E+03 -1.8576E+04  1.7486E+03  0.0000E+00  0.0000E+00  1.7958E+04  0.0000E+00
   1.180m  6.5704E+04  0.0000E+00  0.0000E+00  0.0000E+00  9.0000E+01  9.0000E+01  9.0000E+01  0.0000E+00  1.7131E+00

  rolling  3.0858E+03  2.8169E+02 -1.1439E+03 -2.1957E+03 -1.6990E+03  0.0000E+00  2.3814E+03  3.6931E+02  0.0000E+00
 averages  3.8268E+03  0.0000E+00  4.2453E+02 -1.9171E+04  1.7330E+03  0.0000E+00  0.0000E+00  1.7863E+04  0.0000E+00
           6.5704E+04  0.0000E+00  0.0000E+00  0.0000E+00  9.0000E+01  9.0000E+01  9.0000E+01  0.0000E+00  1.9864E+00
 ------------------------------------------------------------------------------------------------------------------------
      920  3.0837E+03  2.8051E+02 -1.2588E+03 -2.2499E+03 -1.7144E+03  0.0000E+00  2.3368E+03  3.6856E+02  0.0000E+00
 920.000f  3.0327E+03  0.0000E+00  2.3975E+03 -1.8380E+04  1.7497E+03  0.0000E+00  0.0000E+00  1.9028E+04  0.0000E+00
   1.191m  6.5704E+04  0.0000E+00  0.0000E+00  0.0000E+00  9.0000E+01  9.0000E+01  9.0000E+01  0.0000E+00  1.2911E+00

  rolling  3.0855E+03  2.8087E+02 -1.1629E+03 -2.2038E+03 -1.7009E+03  0.0000E+00  2.3734E+03  3.6837E+02  0.0000E+00
 averages  3.7382E+03  0.0000E+00  5.8875E+02 -1.9051E+04  1.7349E+03  0.0000E+00  0.0000E+00  1.7905E+04  0.0000E+00
           6.5704E+04  0.0000E+00  0.0000E+00  0.0000E+00  9.0000E+01  9.0000E+01  9.0000E+01  0.0000E+00  1.9230E+00
 ------------------------------------------------------------------------------------------------------------------------
      930  3.0841E+03  2.7580E+02 -1.2116E+03 -2.2512E+03 -1.7116E+03  0.0000E+00  2.3882E+03  3.6294E+02  0.0000E+00
 930.000f  3.5578E+03  0.0000E+00  7.0757E+02 -1.8356E+04  1.7485E+03  0.0000E+00  0.0000E+00  1.7315E+04  0.0000E+00
   1.204m  6.5704E+04  0.0000E+00  0.0000E+00  0.0000E+00  9.0000E+01  9.0000E+01  9.0000E+01  0.0000E+00  1.8432E+00

  rolling  3.0852E+03  2.8024E+02 -1.1803E+03 -2.2138E+03 -1.7028E+03  0.0000E+00  2.3686E+03  3.6765E+02  0.0000E+00
 averages  3.6462E+03  0.0000E+00  7.7830E+02 -1.8906E+04  1.7371E+03  0.0000E+00  0.0000E+00  1.7948E+04  0.0000E+00
           6.5704E+04  0.0000E+00  0.0000E+00  0.0000E+00  9.0000E+01  9.0000E+01  9.0000E+01  0.0000E+00  1.8523E+00
 ------------------------------------------------------------------------------------------------------------------------
      940  3.0836E+03  2.7759E+02 -1.2321E+03 -2.2252E+03 -1.7091E+03  0.0000E+00  2.3403E+03  3.6193E+02  0.0000E+00
 940.000f  3.3592E+03  0.0000E+00  1.3392E+03 -1.8682E+04  1.7484E+03  0.0000E+00  0.0000E+00  1.8272E+04  0.0000E+00
   1.216m  6.5704E+04  0.0000E+00  0.0000E+00  0.0000E+00  9.0000E+01  9.0000E+01  9.0000E+01  0.0000E+00  1.6371E+00

  rolling  3.0849E+03  2.7965E+02 -1.1944E+03 -2.2181E+03 -1.7047E+03  0.0000E+00  2.3609E+03  3.6741E+02  0.0000E+00
 averages  3.5916E+03  0.0000E+00  8.6729E+02 -1.8839E+04  1.7395E+03  0.0000E+00  0.0000E+00  1.7966E+04  0.0000E+00
           6.5704E+04  0.0000E+00  0.0000E+00  0.0000E+00  9.0000E+01  9.0000E+01  9.0000E+01  0.0000E+00  1.8169E+00
 ------------------------------------------------------------------------------------------------------------------------
      950  3.0833E+03  2.8115E+02 -1.2675E+03 -2.2317E+03 -1.7077E+03  0.0000E+00  2.3072E+03  3.6464E+02  0.0000E+00
 950.000f  3.3263E+03  0.0000E+00  1.5257E+03 -1.8605E+04  1.7478E+03  0.0000E+00  0.0000E+00  1.8383E+04  0.0000E+00
   1.229m  6.5704E+04  0.0000E+00  0.0000E+00  0.0000E+00  9.0000E+01  9.0000E+01  9.0000E+01  0.0000E+00  1.5992E+00

  rolling  3.0846E+03  2.7901E+02 -1.2042E+03 -2.2214E+03 -1.7064E+03  0.0000E+00  2.3559E+03  3.6768E+02  0.0000E+00
 averages  3.5146E+03  0.0000E+00  1.0343E+03 -1.8785E+04  1.7419E+03  0.0000E+00  0.0000E+00  1.8078E+04  0.0000E+00
           6.5704E+04  0.0000E+00  0.0000E+00  0.0000E+00  9.0000E+01  9.0000E+01  9.0000E+01  0.0000E+00  1.7539E+00
 ------------------------------------------------------------------------------------------------------------------------
 ------------------------------------------------------------------------------------------------------------------------

     step     eng_tot    temp_tot     eng_cfg     eng_vdw     eng_cou     eng_bnd     eng_ang     eng_dih     eng_tet
 time          eng_pv    temp_rot     vir_cfg     vir_vdw     vir_cou     vir_bnd     vir_ang     vir_con     vir_tet
 cpu time      volume    temp_shl     eng_shl     vir_shl       alpha        beta       gamma     vir_pmf       press

 ------------------------------------------------------------------------------------------------------------------------
      960  3.0831E+03  2.7902E+02 -1.2372E+03 -2.2289E+03 -1.7051E+03  0.0000E+00  2.3272E+03  3.6953E+02  0.0000E+00
 960.000f  3.4726E+03  0.0000E+00  1.0613E+03 -1.8631E+04  1.7464E+03  0.0000E+00  0.0000E+00  1.7946E+04  0.0000E+00
   1.241m  6.5704E+04  0.0000E+00  0.0000E+00  0.0000E+00  9.0000E+01  9.0000E+01  9.0000E+01  0.0000E+00  1.7446E+00

  rolling  3.0844E+03  2.7849E+02 -1.2113E+03 -2.2235E+03 -1.7076E+03  0.0000E+00  2.3515E+03  3.6831E+02  0.0000E+00
 averages  3.4931E+03  0.0000E+00  1.0493E+03 -1.8749E+04  1.7438E+03  0.0000E+00  0.0000E+00  1.8054E+04  0.0000E+00
           6.5704E+04  0.0000E+00  0.0000E+00  0.0000E+00  9.0000E+01  9.0000E+01  9.0000E+01  0.0000E+00  1.7448E+00
 ------------------------------------------------------------------------------------------------------------------------
      970  3.0824E+03  2.8159E+02 -1.2548E+03 -2.2070E+03 -1.7064E+03  0.0000E+00  2.2877E+03  3.7099E+02  0.0000E+00
 970.000f  3.4013E+03  0.0000E+00  1.3628E+03 -1.8931E+04  1.7508E+03  0.0000E+00  0.0000E+00  1.8543E+04  0.0000E+00
   1.253m  6.5704E+04  0.0000E+00  0.0000E+00  0.0000E+00  9.0000E+01  9.0000E+01  9.0000E+01  0.0000E+00  1.6592E+00

  rolling  3.0841E+03  2.7837E+02 -1.2187E+03 -2.2259E+03 -1.7086E+03  0.0000E+00  2.3468E+03  3.6895E+02  0.0000E+00
 averages  3.4278E+03  0.0000E+00  1.2161E+03 -1.8709E+04  1.7456E+03  0.0000E+00  0.0000E+00  1.8179E+04  0.0000E+00
           6.5704E+04  0.0000E+00  0.0000E+00  0.0000E+00  9.0000E+01  9.0000E+01  9.0000E+01  0.0000E+00  1.6858E+00
 ------------------------------------------------------------------------------------------------------------------------
      980  3.0817E+03  2.8530E+02 -1.2810E+03 -2.1972E+03 -1.7101E+03  0.0000E+00  2.2578E+03  3.6860E+02  0.0000E+00
 980.000f  3.3768E+03  0.0000E+00  1.5595E+03 -1.9046E+04  1.7549E+03  0.0000E+00  0.0000E+00  1.8851E+04  0.0000E+00
   1.266m  6.5704E+04  0.0000E+00  0.0000E+00  0.0000E+00  9.0000E+01  9.0000E+01  9.0000E+01  0.0000E+00  1.6189E+00

  rolling  3.0839E+03  2.7841E+02 -1.2239E+03 -2.2254E+03 -1.7094E+03  0.0000E+00  2.3417E+03  3.6923E+02  0.0000E+00
 averages  3.4029E+03  0.0000E+00  1.2779E+03 -1.8706E+04  1.7473E+03  0.0000E+00  0.0000E+00  1.8237E+04  0.0000E+00
           6.5704E+04  0.0000E+00  0.0000E+00  0.0000E+00  9.0000E+01  9.0000E+01  9.0000E+01  0.0000E+00  1.6647E+00
 ------------------------------------------------------------------------------------------------------------------------
      990  3.0825E+03  2.8209E+02 -1.2265E+03 -2.2324E+03 -1.7131E+03  0.0000E+00  2.3548E+03  3.6419E+02  0.0000E+00
 990.000f  3.3676E+03  0.0000E+00  1.5757E+03 -1.8599E+04  1.7578E+03  0.0000E+00  0.0000E+00  1.8417E+04  0.0000E+00
   1.278m  6.5704E+04  0.0000E+00  0.0000E+00  0.0000E+00  9.0000E+01  9.0000E+01  9.0000E+01  0.0000E+00  1.5889E+00

  rolling  3.0836E+03  2.7877E+02 -1.2285E+03 -2.2262E+03 -1.7099E+03  0.0000E+00  2.3389E+03  3.6877E+02  0.0000E+00
 averages  3.3747E+03  0.0000E+00  1.3680E+03 -1.8688E+04  1.7489E+03  0.0000E+00  0.0000E+00  1.8307E+04  0.0000E+00
           6.5704E+04  0.0000E+00  0.0000E+00  0.0000E+00  9.0000E+01  9.0000E+01  9.0000E+01  0.0000E+00  1.6360E+00
 ------------------------------------------------------------------------------------------------------------------------
     1000  3.0823E+03  2.8509E+02 -1.2372E+03 -2.2221E+03 -1.7162E+03  0.0000E+00  2.3411E+03  3.5993E+02  0.0000E+00
   1.000p  3.5811E+03  0.0000E+00  1.0668E+03 -1.8703E+04  1.7604E+03  0.0000E+00  0.0000E+00  1.8009E+04  0.0000E+00
   1.292m  6.5704E+04  0.0000E+00  0.0000E+00  0.0000E+00  9.0000E+01  9.0000E+01  9.0000E+01  0.0000E+00  1.7887E+00

  rolling  3.0835E+03  2.7923E+02 -1.2302E+03 -2.2279E+03 -1.7105E+03  0.0000E+00  2.3407E+03  3.6747E+02  0.0000E+00
 averages  3.3885E+03  0.0000E+00  1.3465E+03 -1.8658E+04  1.7506E+03  0.0000E+00  0.0000E+00  1.8254E+04  0.0000E+00
           6.5704E+04  0.0000E+00  0.0000E+00  0.0000E+00  9.0000E+01  9.0000E+01  9.0000E+01  0.0000E+00  1.6470E+00
 ------------------------------------------------------------------------------------------------------------------------


 run terminating. elapsed cpu time =   7.74980E+01, job time =  10.000h, close time =  100.00s



 run terminated after    1000 steps. final averages calculated over     500 steps.


 ------------------------------------------------------------------------------------------------------------------------

     step     eng_tot    temp_tot     eng_cfg     eng_vdw     eng_cou     eng_bnd     eng_ang     eng_dih     eng_tet
 time          eng_pv    temp_rot     vir_cfg     vir_vdw     vir_cou     vir_bnd     vir_ang     vir_con     vir_tet
 cpu time      volume    temp_shl     eng_shl     vir_shl       alpha        beta       gamma     vir_pmf       press

 ------------------------------------------------------------------------------------------------------------------------
     1000  3.0865E+03  3.0101E+02 -9.7119E+02 -2.1548E+03 -1.6954E+03  0.0000E+00  2.4985E+03  3.8055E+02  0.0000E+00
   1.000p  4.4094E+03  0.0000E+00  2.4660E+02 -1.9686E+04  1.7132E+03  0.0000E+00  0.0000E+00  1.8220E+04  0.0000E+00
   1.294m  6.5704E+04  0.0000E+00  0.0000E+00  0.0000E+00  9.0000E+01  9.0000E+01  9.0000E+01  0.0000E+00  2.1946E+00

  r.m.s.   2.2257E+00  1.8520E+01  1.8655E+02  5.1284E+01  9.3426E+00  0.0000E+00  1.2304E+02  1.2658E+01  0.0000E+00
 fluctn.   7.5017E+02  0.0000E+00  1.1360E+03  7.0629E+02  2.6880E+01  0.0000E+00  0.0000E+00  8.9154E+02  0.0000E+00
           1.4680E-11  0.0000E+00  0.0000E+00  0.0000E+00  2.6493E-14  2.6493E-14  2.6493E-14  0.0000E+00  4.6303E-01
 ------------------------------------------------------------------------------------------------------------------------


            Approximate 3D Diffusion  coefficients (10^-9 m^2 / s)

            atom        D 
            S          2.5897E+00
            O          3.8816E+00
            C          3.6596E+00
            H          5.3581E+00
            S*         5.9945E+00
            O*         1.5148E+01


                Average pressure tensor                                       r.m.s. fluctuations 

           2.0630E+00  4.4143E-02 -1.1603E-02                          5.8583E-01  3.0288E-01  3.8307E-01
           4.4143E-02  2.2213E+00  9.3368E-02                          3.0288E-01  6.8830E-01  5.1401E-01
          -1.1603E-02  9.3368E-02  2.2995E+00                          3.8307E-01  5.1401E-01  5.9663E-01

            trace/3.   2.1946E+00


 sample of final configuration

      i       x(i)        y(i)        z(i)       vx(i)       vy(i)       vz(i)       fx(i)       fy(i)       fz(i)


      1 -1.1806E+01 -1.6574E+01  1.8715E+01 -2.2741E-01  2.8215E+00 -1.5449E-02 -3.4410E+01  6.9133E+03 -3.1004E+02
    262 -1.1041E+00 -4.7220E+00 -1.8199E+01 -9.7989E-01 -5.8766E-01  8.1525E-02 -2.8345E+03  1.9912E+02  1.2947E+03
    523 -1.6847E+00  9.4457E+00 -1.2007E+01  2.2510E+00 -3.9332E+00  2.0081E+00 -2.9287E+03  1.0241E+03 -3.8559E+03
    784  9.9342E+00 -1.9485E+01  1.7719E+01 -1.9901E+00 -2.0311E+00 -1.0505E-01  2.6433E+03  6.6343E+02  2.5636E+01
   1045 -1.9288E+01  1.1081E+01 -1.4891E+01  1.2902E+01  9.0843E+00 -1.5438E+01  1.1485E+03 -1.4411E+03 -8.2773E+02
   1306 -1.0770E+01 -1.5117E+01  2.3137E+00 -7.3866E+00 -7.3384E+00  1.6909E+01  9.6291E+02 -2.5743E+02  4.7756E+03
   1567  4.7294E+00  6.8945E-01 -1.7618E+01 -8.9619E-01 -1.8326E+01 -1.9339E+01 -1.5024E+03  3.6904E+03 -4.9066E+02
   1828  1.1826E+01  1.2135E+01 -6.7725E+00 -2.3773E+00  8.8135E+00  4.8767E+00 -1.1573E+03  2.3081E+03 -9.0116E+02
   2089 -1.0837E+01 -7.4088E+00 -3.1248E+00  2.9766E+00  7.8606E-01  6.6271E+00 -2.9754E+03 -6.8127E+02 -7.8933E+02
   2350 -4.2118E+00  3.0236E+00  3.5427E+00  1.6732E-01 -9.1916E+00  9.5999E+00 -1.2321E+03 -2.7605E+03 -3.4356E+03
   2611  7.7246E+00 -1.6285E+01  2.5844E+00  3.5460E-01 -2.4094E+00  1.3617E+00  4.7042E+03 -4.3485E+03  2.1135E+03
   2872 -1.8897E+01  1.5561E+00 -8.1271E+00 -3.7412E+00  2.8531E+00  3.9441E+00 -5.0181E+02  2.5858E+03  1.8574E+03
   3133 -1.5346E+01  1.4848E+01  7.0933E+00 -1.5923E-01  2.6457E+00  1.9332E+00 -7.9745E+03  6.7390E+03 -1.3504E+03
   3394  6.0235E+00 -3.2591E+00  1.8601E+00 -1.5227E+00  1.3679E+00 -9.1194E+00 -7.3842E+03  3.9367E+03  2.4154E+03
   3655  4.2449E+00  6.3258E+00  4.1207E-01  4.0604E+00  9.4130E+00  9.1308E+00  2.4523E+03 -1.8713E+03 -4.6780E+02
   3916 -1.3171E+01 -1.6567E+01  8.9233E+00 -1.0508E+01  5.0957E+00  3.1962E+00  3.1361E+02 -1.2825E+03 -7.5533E+02
   4177 -9.6498E+00  8.1844E+00  1.2839E+01 -2.1808E+00  1.4275E+01  4.7622E+00  3.2366E+02 -2.5236E+03 -1.9549E+03
   4438  6.7539E+00  1.5457E+01  1.3724E+01 -1.5370E+01  3.5718E+00 -1.1044E+01  1.5004E+03  2.5664E+03  2.3793E+03
   4699 -3.7249E+00 -2.4968E+00 -1.6875E+01 -9.3154E+00  7.2288E+00 -1.6185E+01 -1.7675E+03  5.1740E+02 -4.2673E+03
   4960 -1.8902E+01  3.0942E+00  1.0028E+01 -3.1562E+00  8.3336E+00 -9.1778E+00  3.1225E+03  1.9043E+03  4.4530E+03

 time elapsed since job start =          77.629 seconds

