
                    DL_POLY Classic 1.2

                              Running on    8 nodes


 ************************************************************************************************************************
 ************************************************************************************************************************
 ************************************************************************************************************************
 ***************     DL_POLY TEST 36: DMSO Excitation Test Case                                           ***************
 ************************************************************************************************************************
 ************************************************************************************************************************
 ************************************************************************************************************************


 SIMULATION CONTROL PARAMETERS


 velocity verlet integration selected

 simulation temperature           2.9800E+02

 selected number of timesteps         1000

 equilibration period                  500

 simulation timestep              1.0000E-03

 data printing interval                 10

 statistics file interval               10

 noscale restart requested

 Nose-Hoover 
 thermostat relaxation time       1.0000E-01


 radial distribution functions on 
 g(r) collection interval               10
 g(r) bin width                   5.0000E-02

 g(r) printing option on      

 real space cut off               1.3000E+01

 real space cut off (vdw)         1.3000E+01

 border width of Verlet shell     1.0000E+00


 Electrostatics : reaction field


 relative dielectric constant     4.6000E+01

 excitation option selected
 energy decomposition start              500
 energy decomposition interval            10
 system A first atom                    5021
 system A last atom                     5120
 system B first atom                    5121
 system B last atom                     5220

 user allocated job time (h)      1.0000

 job closure time        (s)     100.000


SYSTEM SPECIFICATION

 energy units=kcal/ mol 


 number of molecular types               2

 molecular species type                  1


 name of species:             DMSO                                    

 number of molecules                   512

 number of atoms/sites                  10


 atomic characteristics:

                      site     name          mass        charge    repeat    freeze

                         1     S           32.06000     0.11674         1         0
                         2     O           15.99940    -0.43674         1         0
                         3     C           12.01100     0.16000         1         0
                         4     C           12.01100     0.16000         1         0
                         5     H            1.00800     0.00000         1         0
                         6     H            1.00800     0.00000         1         0
                         7     H            1.00800     0.00000         1         0
                         8     H            1.00800     0.00000         1         0
                         9     H            1.00800     0.00000         1         0
                        10     H            1.00800     0.00000         1         0

 number of bond constraints              9


 constraint bond details:

                          index     index  bondlength

                              1         2    1.590000
                              1         3    1.800000
                              3         5    1.090000
                              1         4    1.800000
                              3         6    1.090000
                              3         7    1.090000
                              4         8    1.090000
                              4        10    1.090000
                              4         9    1.090000

 number of bond angles                  15


 bond angle details:

                            key     index     index     index     f-const       angle

                           hcos         2         1         3  1.0013E+02   92.100000    0.000000    0.000000    0.000000    0.000000
                           hcos         2         1         4  1.0013E+02   92.100000    0.000000    0.000000    0.000000    0.000000
                           hcos         3         1         4  1.0013E+02   92.100000    0.000000    0.000000    0.000000    0.000000
                           hcos         1         3         5  1.1250E+02  109.471000    0.000000    0.000000    0.000000    0.000000
                           hcos         1         3         6  1.1250E+02  109.471000    0.000000    0.000000    0.000000    0.000000
                           hcos         5         3         6  1.1250E+02  109.471000    0.000000    0.000000    0.000000    0.000000
                           hcos         1         3         7  1.1250E+02  109.471000    0.000000    0.000000    0.000000    0.000000
                           hcos         5         3         7  1.1250E+02  109.471000    0.000000    0.000000    0.000000    0.000000
                           hcos         6         3         7  1.1250E+02  109.471000    0.000000    0.000000    0.000000    0.000000
                           hcos         1         4         8  1.1250E+02  109.471000    0.000000    0.000000    0.000000    0.000000
                           hcos         1         4        10  1.1250E+02  109.471000    0.000000    0.000000    0.000000    0.000000
                           hcos         8         4        10  1.1250E+02  109.471000    0.000000    0.000000    0.000000    0.000000
                           hcos         1         4         9  1.1250E+02  109.471000    0.000000    0.000000    0.000000    0.000000
                           hcos         8         4         9  1.1250E+02  109.471000    0.000000    0.000000    0.000000    0.000000
                           hcos         9         4        10  1.1250E+02  109.471000    0.000000    0.000000    0.000000    0.000000

 number of dihedral angles              12


 dihedral angle details:

                            key     index     index     index     index     f-const       angle        trig    1-4 elec     1-4 vdw

                           cos          2         1         3         5  1.6667E-01    0.000000    3.000000    1.000000    1.000000
                           cos          2         1         3         6  1.6667E-01    0.000000    3.000000    1.000000    1.000000
                           cos          2         1         3         7  1.6667E-01    0.000000    3.000000    1.000000    1.000000
                           cos          4         1         3         5  1.6667E-01    0.000000    3.000000    1.000000    1.000000
                           cos          4         1         3         6  1.6667E-01    0.000000    3.000000    1.000000    1.000000
                           cos          4         1         3         7  1.6667E-01    0.000000    3.000000    1.000000    1.000000
                           cos          2         1         4         8  1.6667E-01    0.000000    3.000000    1.000000    1.000000
                           cos          2         1         4        10  1.6667E-01    0.000000    3.000000    1.000000    1.000000
                           cos          2         1         4         9  1.6667E-01    0.000000    3.000000    1.000000    1.000000
                           cos          3         1         4         8  1.6667E-01    0.000000    3.000000    1.000000    1.000000
                           cos          3         1         4        10  1.6667E-01    0.000000    3.000000    1.000000    1.000000
                           cos          3         1         4         9  1.6667E-01    0.000000    3.000000    1.000000    1.000000

 molecular species type                  2


 name of species:             DMSO*                                   

 number of molecules                    10

 number of atoms/sites                  10


 atomic characteristics:

                      site     name          mass        charge    repeat    freeze

                        11     S*          32.06000     1.11674         1         0
                        12     O*          15.99940    -1.43674         1         0
                        13     C           12.01100     0.16000         1         0
                        14     C           12.01100     0.16000         1         0
                        15     H            1.00800     0.00000         1         0
                        16     H            1.00800     0.00000         1         0
                        17     H            1.00800     0.00000         1         0
                        18     H            1.00800     0.00000         1         0
                        19     H            1.00800     0.00000         1         0
                        20     H            1.00800     0.00000         1         0

 number of bond constraints              9


 constraint bond details:

                          index     index  bondlength

                              1         2    1.590000
                              1         3    1.800000
                              3         5    1.090000
                              1         4    1.800000
                              3         6    1.090000
                              3         7    1.090000
                              4         8    1.090000
                              4        10    1.090000
                              4         9    1.090000

 number of bond angles                  15


 bond angle details:

                            key     index     index     index     f-const       angle

                           hcos         2         1         3  1.0013E+02   92.100000    0.000000    0.000000    0.000000    0.000000
                           hcos         2         1         4  1.0013E+02   92.100000    0.000000    0.000000    0.000000    0.000000
                           hcos         3         1         4  1.0013E+02   92.100000    0.000000    0.000000    0.000000    0.000000
                           hcos         1         3         5  1.1250E+02  109.471000    0.000000    0.000000    0.000000    0.000000
                           hcos         1         3         6  1.1250E+02  109.471000    0.000000    0.000000    0.000000    0.000000
                           hcos         5         3         6  1.1250E+02  109.471000    0.000000    0.000000    0.000000    0.000000
                           hcos         1         3         7  1.1250E+02  109.471000    0.000000    0.000000    0.000000    0.000000
                           hcos         5         3         7  1.1250E+02  109.471000    0.000000    0.000000    0.000000    0.000000
                           hcos         6         3         7  1.1250E+02  109.471000    0.000000    0.000000    0.000000    0.000000
                           hcos         1         4         8  1.1250E+02  109.471000    0.000000    0.000000    0.000000    0.000000
                           hcos         1         4        10  1.1250E+02  109.471000    0.000000    0.000000    0.000000    0.000000
                           hcos         8         4        10  1.1250E+02  109.471000    0.000000    0.000000    0.000000    0.000000
                           hcos         1         4         9  1.1250E+02  109.471000    0.000000    0.000000    0.000000    0.000000
                           hcos         8         4         9  1.1250E+02  109.471000    0.000000    0.000000    0.000000    0.000000
                           hcos         9         4        10  1.1250E+02  109.471000    0.000000    0.000000    0.000000    0.000000

 number of dihedral angles              12


 dihedral angle details:

                            key     index     index     index     index     f-const       angle        trig    1-4 elec     1-4 vdw

                           cos          2         1         3         5  1.6667E-01    0.000000    3.000000    1.000000    1.000000
                           cos          2         1         3         6  1.6667E-01    0.000000    3.000000    1.000000    1.000000
                           cos          2         1         3         7  1.6667E-01    0.000000    3.000000    1.000000    1.000000
                           cos          4         1         3         5  1.6667E-01    0.000000    3.000000    1.000000    1.000000
                           cos          4         1         3         6  1.6667E-01    0.000000    3.000000    1.000000    1.000000
                           cos          4         1         3         7  1.6667E-01    0.000000    3.000000    1.000000    1.000000
                           cos          2         1         4         8  1.6667E-01    0.000000    3.000000    1.000000    1.000000
                           cos          2         1         4        10  1.6667E-01    0.000000    3.000000    1.000000    1.000000
                           cos          2         1         4         9  1.6667E-01    0.000000    3.000000    1.000000    1.000000
                           cos          3         1         4         8  1.6667E-01    0.000000    3.000000    1.000000    1.000000
                           cos          3         1         4        10  1.6667E-01    0.000000    3.000000    1.000000    1.000000
                           cos          3         1         4         9  1.6667E-01    0.000000    3.000000    1.000000    1.000000


 number of specified pair potentials        21


                atom 1  atom 2      key                              parameters


                S       S         12-6     6.31276E+06  2.94726E+03
                S*      S*        12-6     6.31276E+06  2.94726E+03
                S       S*        12-6     6.31276E+06  2.94726E+03
                S       O         12-6     1.26318E+06  9.57483E+02
                S*      O*        12-6     1.26318E+06  9.57483E+02
                S       O*        12-6     1.26318E+06  9.57483E+02
                S*      O         12-6     1.26318E+06  9.57483E+02
                S       C         12-6     2.72377E+06  1.40378E+03
                S*      C         12-6     2.72377E+06  1.40378E+03
                S       H         12-6     3.57187E+05  3.21424E+02
                S*      H         12-6     3.57187E+05  3.21424E+02
                O       O         12-6     2.32116E+05  2.98084E+02
                O*      O*        12-6     2.32116E+05  2.98084E+02
                O       O*        12-6     2.32116E+05  2.98084E+02
                O       C         12-6     5.35958E+05  4.52239E+02
                O*      C         12-6     5.35958E+05  4.52239E+02
                O       H         12-6     6.35666E+04  9.84767E+01
                O*      H         12-6     6.35666E+04  9.84767E+01
                C       C         12-6     1.17134E+06  6.67517E+02
                C       H         12-6     1.50602E+05  1.51339E+02
                H       H         12-6     1.71986E+04  3.23369E+01

 configuration file name: 

          Dimethyl Sulfoxide                                                              


 selected image convention               1


 simulation cell vectors


                        40.351897    0.000000    0.000000
                         0.000000   40.351897    0.000000
                         0.000000    0.000000   40.351897


 system volume            65704.0089859    

 shared atoms from passcon                       0


 total degrees of freedom                     10749.
 rotational degrees of freedom                    0.
 shell pseudo degrees of freedom                  0.


 sample of starting configuration

      i       x(i)        y(i)        z(i)       vx(i)       vy(i)       vz(i)       fx(i)       fy(i)       fz(i)


      1 -1.1067E+01 -1.5990E+01  1.8234E+01 -5.0051E+00 -1.4052E+00 -3.0638E+00 -7.4634E+02  7.7080E+03 -2.1924E+03
    257 -6.0164E+00  7.0851E+00 -2.0149E+01 -6.1486E+00 -6.8285E+00 -1.2695E+01 -6.6783E+03 -2.2622E+03 -8.1220E+03
    513  8.0451E+00  1.2762E+01 -1.6223E+01  6.7455E-01  3.6648E-01  4.6797E+00  8.5353E+03  1.3050E+04  1.1542E+03
    769 -7.1826E+00 -1.5703E+01 -1.4064E+01  1.3712E+00 -4.7277E+00  8.0516E+00  8.4290E+02 -3.9632E+02 -1.7488E+03
   1025 -2.0119E+01  1.4047E-01 -1.7031E+01 -5.9740E+00 -1.2167E+01  1.2741E+01 -3.9210E+03 -4.3955E+03  2.5889E+03
   1281 -1.5465E+01 -3.8568E+00 -5.6222E+00 -1.7918E+00  3.6129E-01 -4.6323E-01  4.7508E+03 -4.5116E+03 -4.0757E+03
   1537 -4.1542E+00  5.2091E+00 -9.8523E+00  2.5974E-01  3.4940E+00 -1.3569E+01 -9.0886E+02 -1.8874E+03  2.3755E+03
   1793 -1.3707E+01  8.4559E+00 -1.5878E+01  2.6745E+00  5.1271E+00  1.8609E-01  1.1976E+03 -4.7785E+03  1.1606E+04
   2049  3.4806E+00 -1.4404E+00 -2.5243E+00 -2.1960E+00 -2.0957E+01 -1.4198E+01  1.1408E+03 -6.1432E+03 -5.3694E+02
   2305  8.9488E+00  1.0748E+01 -2.0271E+00 -1.8562E+00 -1.9511E+01  1.9383E+00  3.2572E+03  2.8384E+03 -8.8730E+02
   2561 -1.3970E+01  1.9011E+01  3.0666E+00  1.4055E+00 -7.5102E-01 -2.9818E+00 -1.1099E+04 -4.0651E+03 -1.1893E+04
   2817 -1.4575E+01 -1.0607E+01  2.2841E+00 -4.7104E+00 -1.8536E+00  6.7694E-01  2.4815E+03 -7.2049E+02 -5.7010E+02
   3073 -6.3214E+00 -2.0176E+01  3.5374E+00  9.2663E+00 -1.2232E+00  4.6848E+00  4.0807E+03  4.0100E+03  2.2881E+03
   3329  2.8198E+00 -1.6738E+01  3.1512E+00  2.0179E+01 -4.1978E+00  1.3056E+01 -1.2834E+03  6.3455E+02 -3.7096E+03
   3585  2.4194E+00  1.3102E+01  1.2453E+01 -4.0811E+00  9.9242E+00 -3.2705E+00  2.6978E+02 -2.9885E+03 -3.6050E+02
   3841 -1.8216E+01  1.9976E+01  1.4805E+01  1.4520E+00 -2.1485E+00 -3.7783E+00  2.4395E+03 -2.1200E+03 -4.6067E+03
   4097 -2.0083E+01 -5.1189E-01  1.4811E+01 -3.6537E+00 -9.5454E+00 -9.1831E+00  9.7737E+02 -3.8181E+03 -2.4447E+03
   4353  4.0681E+00  1.2148E+01  6.4338E+00 -3.3775E+00 -9.1288E-01  5.5097E+00 -8.5189E+03  2.4128E+03  4.0752E+03
   4609  9.2299E+00 -1.1370E+01  1.1042E+01 -9.9074E+00 -4.1339E+00  8.6811E+00 -6.8051E+03  2.0149E+03  1.1708E+03
   4865  1.8709E+01  6.9412E+00  1.8015E+01 -5.9405E+00  4.0503E+00 -1.6101E+01  5.6725E+02  3.6098E+03 -1.2071E+03


long range correction for: vdw energy    -0.954171E+02
                         : vdw pressure  -0.199134E+00


long range correction for: vdw energy    -0.954171E+02
                         : vdw pressure  -0.199134E+00

 time elapsed since job start =           1.106 seconds

 ------------------------------------------------------------------------------------------------------------------------

     step     eng_tot    temp_tot     eng_cfg     eng_vdw     eng_cou     eng_bnd     eng_ang     eng_dih     eng_tet
 time          eng_pv    temp_rot     vir_cfg     vir_vdw     vir_cou     vir_bnd     vir_ang     vir_con     vir_tet
 cpu time      volume    temp_shl     eng_shl     vir_shl       alpha        beta       gamma     vir_pmf       press

 ------------------------------------------------------------------------------------------------------------------------
        1  3.1004E+03  2.9107E+02 -8.3207E+00 -1.9470E+03 -1.6161E+03  0.0000E+00  3.1652E+03  3.8954E+02  0.0000E+00
   1.000f  1.3993E+03  0.0000E+00  1.1321E+04 -2.2330E+04  1.6506E+03  0.0000E+00  0.0000E+00  3.2000E+04  0.0000E+00
   1.320s  6.5704E+04  0.0000E+00  0.0000E+00  0.0000E+00  9.0000E+01  9.0000E+01  9.0000E+01  0.0000E+00 -1.7752E+00

  rolling  3.1004E+03  2.9107E+02 -8.3207E+00 -1.9470E+03 -1.6161E+03  0.0000E+00  3.1652E+03  3.8954E+02  0.0000E+00
 averages  1.3993E+03  0.0000E+00  1.1321E+04 -2.2330E+04  1.6506E+03  0.0000E+00  0.0000E+00  3.2000E+04  0.0000E+00
           6.5704E+04  0.0000E+00  0.0000E+00  0.0000E+00  9.0000E+01  9.0000E+01  9.0000E+01  0.0000E+00 -1.7752E+00
 ------------------------------------------------------------------------------------------------------------------------
       10  3.0930E+03  3.3294E+02 -4.6393E+02 -2.0525E+03 -1.6169E+03  0.0000E+00  2.8118E+03  3.9359E+02  0.0000E+00
  10.000f  5.8190E+03  0.0000E+00 -1.0694E+03 -2.1023E+04  1.6489E+03  0.0000E+00  0.0000E+00  1.8305E+04  0.0000E+00
   2.026s  6.5704E+04  0.0000E+00  0.0000E+00  0.0000E+00  9.0000E+01  9.0000E+01  9.0000E+01  0.0000E+00  2.8460E+00

  rolling  3.0937E+03  3.2016E+02 -3.2592E+02 -2.0192E+03 -1.6162E+03  0.0000E+00  2.9181E+03  3.9141E+02  0.0000E+00
 averages  5.5021E+03  0.0000E+00 -3.8682E+02 -2.1433E+04  1.6493E+03  0.0000E+00  0.0000E+00  1.9397E+04  0.0000E+00
           6.5704E+04  0.0000E+00  0.0000E+00  0.0000E+00  9.0000E+01  9.0000E+01  9.0000E+01  0.0000E+00  2.5136E+00
 ------------------------------------------------------------------------------------------------------------------------
       20  3.0946E+03  3.2090E+02 -3.4194E+02 -2.0513E+03 -1.6223E+03  0.0000E+00  2.9293E+03  4.0231E+02  0.0000E+00
  20.000f  5.9083E+03  0.0000E+00 -1.6140E+03 -2.1049E+04  1.6527E+03  0.0000E+00  0.0000E+00  1.7783E+04  0.0000E+00
   2.888s  6.5704E+04  0.0000E+00  0.0000E+00  0.0000E+00  9.0000E+01  9.0000E+01  9.0000E+01  0.0000E+00  2.9460E+00

  rolling  3.0935E+03  3.2393E+02 -3.6866E+02 -2.0337E+03 -1.6179E+03  0.0000E+00  2.8883E+03  3.9459E+02  0.0000E+00
 averages  5.7565E+03  0.0000E+00 -1.0771E+03 -2.1262E+04  1.6501E+03  0.0000E+00  0.0000E+00  1.8535E+04  0.0000E+00
           6.5704E+04  0.0000E+00  0.0000E+00  0.0000E+00  9.0000E+01  9.0000E+01  9.0000E+01  0.0000E+00  2.7817E+00
 ------------------------------------------------------------------------------------------------------------------------
       30  3.0927E+03  3.4154E+02 -5.7991E+02 -2.0768E+03 -1.6275E+03  0.0000E+00  2.7179E+03  4.0655E+02  0.0000E+00
  30.000f  5.2273E+03  0.0000E+00  8.1730E+02 -2.0711E+04  1.6540E+03  0.0000E+00  0.0000E+00  1.9874E+04  0.0000E+00
   3.745s  6.5704E+04  0.0000E+00  0.0000E+00  0.0000E+00  9.0000E+01  9.0000E+01  9.0000E+01  0.0000E+00  2.2536E+00

  rolling  3.0934E+03  3.2807E+02 -4.1780E+02 -2.0508E+03 -1.6203E+03  0.0000E+00  2.8555E+03  3.9784E+02  0.0000E+00
 averages  5.5867E+03  0.0000E+00 -4.9389E+02 -2.1043E+04  1.6513E+03  0.0000E+00  0.0000E+00  1.8898E+04  0.0000E+00
           6.5704E+04  0.0000E+00  0.0000E+00  0.0000E+00  9.0000E+01  9.0000E+01  9.0000E+01  0.0000E+00  2.6096E+00
 ------------------------------------------------------------------------------------------------------------------------
       40  3.0920E+03  3.4342E+02 -6.2522E+02 -2.0944E+03 -1.6330E+03  0.0000E+00  2.6996E+03  4.0257E+02  0.0000E+00
  40.000f  5.5045E+03  0.0000E+00 -5.0240E+01 -2.0498E+04  1.6556E+03  0.0000E+00  0.0000E+00  1.8793E+04  0.0000E+00
   4.604s  6.5704E+04  0.0000E+00  0.0000E+00  0.0000E+00  9.0000E+01  9.0000E+01  9.0000E+01  0.0000E+00  2.5693E+00

  rolling  3.0935E+03  3.2900E+02 -4.3519E+02 -2.0560E+03 -1.6229E+03  0.0000E+00  2.8439E+03  3.9975E+02  0.0000E+00
 averages  5.6451E+03  0.0000E+00 -6.7178E+02 -2.0982E+04  1.6522E+03  0.0000E+00  0.0000E+00  1.8658E+04  0.0000E+00
           6.5704E+04  0.0000E+00  0.0000E+00  0.0000E+00  9.0000E+01  9.0000E+01  9.0000E+01  0.0000E+00  2.6784E+00
 ------------------------------------------------------------------------------------------------------------------------
       50  3.0939E+03  3.2558E+02 -4.6734E+02 -2.0506E+03 -1.6384E+03  0.0000E+00  2.8279E+03  3.9374E+02  0.0000E+00
  50.000f  5.5586E+03  0.0000E+00 -6.9135E+02 -2.1035E+04  1.6558E+03  0.0000E+00  0.0000E+00  1.8687E+04  0.0000E+00
   5.463s  6.5704E+04  0.0000E+00  0.0000E+00  0.0000E+00  9.0000E+01  9.0000E+01  9.0000E+01  0.0000E+00  2.6597E+00

  rolling  3.0934E+03  3.3070E+02 -4.6401E+02 -2.0617E+03 -1.6255E+03  0.0000E+00  2.8239E+03  3.9929E+02  0.0000E+00
 averages  5.5672E+03  0.0000E+00 -4.3380E+02 -2.0906E+04  1.6529E+03  0.0000E+00  0.0000E+00  1.8819E+04  0.0000E+00
           6.5704E+04  0.0000E+00  0.0000E+00  0.0000E+00  9.0000E+01  9.0000E+01  9.0000E+01  0.0000E+00  2.6082E+00
 ------------------------------------------------------------------------------------------------------------------------
       60  3.0918E+03  3.3993E+02 -6.6480E+02 -2.0806E+03 -1.6428E+03  0.0000E+00  2.6770E+03  3.8157E+02  0.0000E+00
  60.000f  5.3152E+03  0.0000E+00  2.1268E+02 -2.0656E+04  1.6567E+03  0.0000E+00  0.0000E+00  1.9212E+04  0.0000E+00
   6.324s  6.5704E+04  0.0000E+00  0.0000E+00  0.0000E+00  9.0000E+01  9.0000E+01  9.0000E+01  0.0000E+00  2.4519E+00

  rolling  3.0933E+03  3.3105E+02 -4.8126E+02 -2.0624E+03 -1.6281E+03  0.0000E+00  2.8119E+03  3.9725E+02  0.0000E+00
 averages  5.5967E+03  0.0000E+00 -5.5537E+02 -2.0897E+04  1.6535E+03  0.0000E+00  0.0000E+00  1.8688E+04  0.0000E+00
           6.5704E+04  0.0000E+00  0.0000E+00  0.0000E+00  9.0000E+01  9.0000E+01  9.0000E+01  0.0000E+00  2.6531E+00
 ------------------------------------------------------------------------------------------------------------------------
       70  3.0936E+03  3.2760E+02 -5.8130E+02 -2.1075E+03 -1.6452E+03  0.0000E+00  2.7946E+03  3.7692E+02  0.0000E+00
  70.000f  4.9742E+03  0.0000E+00  8.2801E+02 -2.0276E+04  1.6579E+03  0.0000E+00  0.0000E+00  1.9446E+04  0.0000E+00
   7.098s  6.5704E+04  0.0000E+00  0.0000E+00  0.0000E+00  9.0000E+01  9.0000E+01  9.0000E+01  0.0000E+00  2.1462E+00

  rolling  3.0932E+03  3.3068E+02 -4.9364E+02 -2.0657E+03 -1.6304E+03  0.0000E+00  2.8078E+03  3.9461E+02  0.0000E+00
 averages  5.5510E+03  0.0000E+00 -4.7536E+02 -2.0850E+04  1.6540E+03  0.0000E+00  0.0000E+00  1.8721E+04  0.0000E+00
           6.5704E+04  0.0000E+00  0.0000E+00  0.0000E+00  9.0000E+01  9.0000E+01  9.0000E+01  0.0000E+00  2.6225E+00
 ------------------------------------------------------------------------------------------------------------------------
 ------------------------------------------------------------------------------------------------------------------------

     step     eng_tot    temp_tot     eng_cfg     eng_vdw     eng_cou     eng_bnd     eng_ang     eng_dih     eng_tet
 time          eng_pv    temp_rot     vir_cfg     vir_vdw     vir_cou     vir_bnd     vir_ang     vir_con     vir_tet
 cpu time      volume    temp_shl     eng_shl     vir_shl       alpha        beta       gamma     vir_pmf       press

 ------------------------------------------------------------------------------------------------------------------------
       80  3.0941E+03  3.2084E+02 -5.6783E+02 -2.1206E+03 -1.6479E+03  0.0000E+00  2.8225E+03  3.7818E+02  0.0000E+00
  80.000f  5.4102E+03  0.0000E+00 -8.0068E+02 -2.0090E+04  1.6598E+03  0.0000E+00  0.0000E+00  1.7629E+04  0.0000E+00
   7.958s  6.5704E+04  0.0000E+00  0.0000E+00  0.0000E+00  9.0000E+01  9.0000E+01  9.0000E+01  0.0000E+00  2.6626E+00

  rolling  3.0931E+03  3.3126E+02 -5.1910E+02 -2.0741E+03 -1.6324E+03  0.0000E+00  2.7950E+03  3.9235E+02  0.0000E+00
 averages  5.5006E+03  0.0000E+00 -3.6916E+02 -2.0736E+04  1.6546E+03  0.0000E+00  0.0000E+00  1.8712E+04  0.0000E+00
           6.5704E+04  0.0000E+00  0.0000E+00  0.0000E+00  9.0000E+01  9.0000E+01  9.0000E+01  0.0000E+00  2.5899E+00
 ------------------------------------------------------------------------------------------------------------------------
       90  3.0933E+03  3.2703E+02 -7.0050E+02 -2.1641E+03 -1.6493E+03  0.0000E+00  2.7287E+03  3.8419E+02  0.0000E+00
  90.000f  4.2772E+03  0.0000E+00  2.5307E+03 -1.9510E+04  1.6586E+03  0.0000E+00  0.0000E+00  2.0382E+04  0.0000E+00
   8.816s  6.5704E+04  0.0000E+00  0.0000E+00  0.0000E+00  9.0000E+01  9.0000E+01  9.0000E+01  0.0000E+00  1.5497E+00

  rolling  3.0930E+03  3.3107E+02 -5.3896E+02 -2.0825E+03 -1.6342E+03  0.0000E+00  2.7867E+03  3.9110E+02  0.0000E+00
 averages  5.4422E+03  0.0000E+00 -2.6362E+02 -2.0622E+04  1.6552E+03  0.0000E+00  0.0000E+00  1.8703E+04  0.0000E+00
           6.5704E+04  0.0000E+00  0.0000E+00  0.0000E+00  9.0000E+01  9.0000E+01  9.0000E+01  0.0000E+00  2.5518E+00
 ------------------------------------------------------------------------------------------------------------------------
      100  3.0938E+03  3.1303E+02 -6.2222E+02 -2.1589E+03 -1.6505E+03  0.0000E+00  2.7960E+03  3.9127E+02  0.0000E+00
 100.000f  5.0499E+03  0.0000E+00 -3.0030E+02 -1.9578E+04  1.6586E+03  0.0000E+00  0.0000E+00  1.7619E+04  0.0000E+00
   9.666s  6.5704E+04  0.0000E+00  0.0000E+00  0.0000E+00  9.0000E+01  9.0000E+01  9.0000E+01  0.0000E+00  2.4304E+00

  rolling  3.0929E+03  3.3028E+02 -5.5500E+02 -2.0909E+03 -1.6358E+03  0.0000E+00  2.7810E+03  3.9078E+02  0.0000E+00
 averages  5.3659E+03  0.0000E+00 -1.2511E+02 -2.0507E+04  1.6555E+03  0.0000E+00  0.0000E+00  1.8726E+04  0.0000E+00
           6.5704E+04  0.0000E+00  0.0000E+00  0.0000E+00  9.0000E+01  9.0000E+01  9.0000E+01  0.0000E+00  2.4977E+00
 ------------------------------------------------------------------------------------------------------------------------
      110  3.0929E+03  3.1067E+02 -6.7496E+02 -2.1487E+03 -1.6537E+03  0.0000E+00  2.7286E+03  3.9883E+02  0.0000E+00
 110.000f  4.5556E+03  0.0000E+00  8.9858E+02 -1.9683E+04  1.6600E+03  0.0000E+00  0.0000E+00  1.8922E+04  0.0000E+00
  10.525s  6.5704E+04  0.0000E+00  0.0000E+00  0.0000E+00  9.0000E+01  9.0000E+01  9.0000E+01  0.0000E+00  1.9959E+00

  rolling  3.0927E+03  3.3047E+02 -5.9868E+02 -2.1055E+03 -1.6394E+03  0.0000E+00  2.7550E+03  3.9115E+02  0.0000E+00
 averages  5.2977E+03  0.0000E+00 -4.1348E+01 -2.0313E+04  1.6565E+03  0.0000E+00  0.0000E+00  1.8616E+04  0.0000E+00
           6.5704E+04  0.0000E+00  0.0000E+00  0.0000E+00  9.0000E+01  9.0000E+01  9.0000E+01  0.0000E+00  2.4700E+00
 ------------------------------------------------------------------------------------------------------------------------
      120  3.0909E+03  3.1321E+02 -7.8215E+02 -2.1338E+03 -1.6583E+03  0.0000E+00  2.6104E+03  3.9947E+02  0.0000E+00
 120.000f  4.6223E+03  0.0000E+00  5.1256E+02 -1.9877E+04  1.6615E+03  0.0000E+00  0.0000E+00  1.8728E+04  0.0000E+00
  11.383s  6.5704E+04  0.0000E+00  0.0000E+00  0.0000E+00  9.0000E+01  9.0000E+01  9.0000E+01  0.0000E+00  2.1490E+00

  rolling  3.0925E+03  3.2877E+02 -6.2943E+02 -2.1155E+03 -1.6431E+03  0.0000E+00  2.7378E+03  3.9134E+02  0.0000E+00
 averages  5.1429E+03  0.0000E+00  2.4013E+02 -2.0172E+04  1.6575E+03  0.0000E+00  0.0000E+00  1.8755E+04  0.0000E+00
           6.5704E+04  0.0000E+00  0.0000E+00  0.0000E+00  9.0000E+01  9.0000E+01  9.0000E+01  0.0000E+00  2.3595E+00
 ------------------------------------------------------------------------------------------------------------------------
      130  3.0907E+03  3.0793E+02 -8.0736E+02 -2.1374E+03 -1.6619E+03  0.0000E+00  2.5975E+03  3.9443E+02  0.0000E+00
 130.000f  4.6492E+03  0.0000E+00  7.4352E+01 -1.9828E+04  1.6619E+03  0.0000E+00  0.0000E+00  1.8241E+04  0.0000E+00
  12.155s  6.5704E+04  0.0000E+00  0.0000E+00  0.0000E+00  9.0000E+01  9.0000E+01  9.0000E+01  0.0000E+00  2.2623E+00

  rolling  3.0922E+03  3.2619E+02 -6.5763E+02 -2.1191E+03 -1.6466E+03  0.0000E+00  2.7174E+03  3.9058E+02  0.0000E+00
 averages  5.0987E+03  0.0000E+00  1.5018E+02 -2.0117E+04  1.6583E+03  0.0000E+00  0.0000E+00  1.8608E+04  0.0000E+00
           6.5704E+04  0.0000E+00  0.0000E+00  0.0000E+00  9.0000E+01  9.0000E+01  9.0000E+01  0.0000E+00  2.3716E+00
 ------------------------------------------------------------------------------------------------------------------------
      140  3.0894E+03  3.1244E+02 -9.3959E+02 -2.1584E+03 -1.6646E+03  0.0000E+00  2.4984E+03  3.8501E+02  0.0000E+00
 140.000f  4.3817E+03  0.0000E+00  7.2107E+02 -1.9557E+04  1.6615E+03  0.0000E+00  0.0000E+00  1.8616E+04  0.0000E+00
  13.012s  6.5704E+04  0.0000E+00  0.0000E+00  0.0000E+00  9.0000E+01  9.0000E+01  9.0000E+01  0.0000E+00  2.0708E+00

  rolling  3.0919E+03  3.2380E+02 -6.9410E+02 -2.1271E+03 -1.6499E+03  0.0000E+00  2.6940E+03  3.8893E+02  0.0000E+00
 averages  4.9506E+03  0.0000E+00  3.5742E+02 -2.0001E+04  1.6590E+03  0.0000E+00  0.0000E+00  1.8699E+04  0.0000E+00
           6.5704E+04  0.0000E+00  0.0000E+00  0.0000E+00  9.0000E+01  9.0000E+01  9.0000E+01  0.0000E+00  2.2817E+00
 ------------------------------------------------------------------------------------------------------------------------
      150  3.0896E+03  3.0180E+02 -9.0958E+02 -2.1458E+03 -1.6659E+03  0.0000E+00  2.5210E+03  3.8111E+02  0.0000E+00
 150.000f  4.5323E+03  0.0000E+00 -2.0889E+02 -1.9707E+04  1.6567E+03  0.0000E+00  0.0000E+00  1.7841E+04  0.0000E+00
  13.869s  6.5704E+04  0.0000E+00  0.0000E+00  0.0000E+00  9.0000E+01  9.0000E+01  9.0000E+01  0.0000E+00  2.3152E+00

  rolling  3.0916E+03  3.2041E+02 -7.2514E+02 -2.1331E+03 -1.6528E+03  0.0000E+00  2.6733E+03  3.8744E+02  0.0000E+00
 averages  4.8942E+03  0.0000E+00  2.5221E+02 -1.9913E+04  1.6593E+03  0.0000E+00  0.0000E+00  1.8506E+04  0.0000E+00
           6.5704E+04  0.0000E+00  0.0000E+00  0.0000E+00  9.0000E+01  9.0000E+01  9.0000E+01  0.0000E+00  2.2931E+00
 ------------------------------------------------------------------------------------------------------------------------
 ------------------------------------------------------------------------------------------------------------------------

     step     eng_tot    temp_tot     eng_cfg     eng_vdw     eng_cou     eng_bnd     eng_ang     eng_dih     eng_tet
 time          eng_pv    temp_rot     vir_cfg     vir_vdw     vir_cou     vir_bnd     vir_ang     vir_con     vir_tet
 cpu time      volume    temp_shl     eng_shl     vir_shl       alpha        beta       gamma     vir_pmf       press

 ------------------------------------------------------------------------------------------------------------------------
      160  3.0901E+03  2.9200E+02 -8.8720E+02 -2.1276E+03 -1.6653E+03  0.0000E+00  2.5259E+03  3.7975E+02  0.0000E+00
 160.000f  4.2095E+03  0.0000E+00  3.0322E+02 -1.9950E+04  1.6528E+03  0.0000E+00  0.0000E+00  1.8600E+04  0.0000E+00
  14.626s  6.5704E+04  0.0000E+00  0.0000E+00  0.0000E+00  9.0000E+01  9.0000E+01  9.0000E+01  0.0000E+00  2.0643E+00

  rolling  3.0913E+03  3.1686E+02 -7.5912E+02 -2.1396E+03 -1.6553E+03  0.0000E+00  2.6490E+03  3.8676E+02  0.0000E+00
 averages  4.7416E+03  0.0000E+00  4.1885E+02 -1.9819E+04  1.6591E+03  0.0000E+00  0.0000E+00  1.8579E+04  0.0000E+00
           6.5704E+04  0.0000E+00  0.0000E+00  0.0000E+00  9.0000E+01  9.0000E+01  9.0000E+01  0.0000E+00  2.2088E+00
 ------------------------------------------------------------------------------------------------------------------------
      170  3.0907E+03  2.8320E+02 -8.7193E+02 -2.1524E+03 -1.6650E+03  0.0000E+00  2.5686E+03  3.7694E+02  0.0000E+00
 170.000f  4.5419E+03  0.0000E+00 -1.1181E+03 -1.9607E+04  1.6499E+03  0.0000E+00  0.0000E+00  1.6839E+04  0.0000E+00
  15.486s  6.5704E+04  0.0000E+00  0.0000E+00  0.0000E+00  9.0000E+01  9.0000E+01  9.0000E+01  0.0000E+00  2.4933E+00

  rolling  3.0910E+03  3.1287E+02 -7.9178E+02 -2.1457E+03 -1.6574E+03  0.0000E+00  2.6246E+03  3.8672E+02  0.0000E+00
 averages  4.6674E+03  0.0000E+00  3.3020E+02 -1.9731E+04  1.6585E+03  0.0000E+00  0.0000E+00  1.8403E+04  0.0000E+00
           6.5704E+04  0.0000E+00  0.0000E+00  0.0000E+00  9.0000E+01  9.0000E+01  9.0000E+01  0.0000E+00  2.2099E+00
 ------------------------------------------------------------------------------------------------------------------------
      180  3.0909E+03  2.7945E+02 -9.0921E+02 -2.2077E+03 -1.6658E+03  0.0000E+00  2.5934E+03  3.7090E+02  0.0000E+00
 180.000f  3.4622E+03  0.0000E+00  1.8089E+03 -1.8898E+04  1.6500E+03  0.0000E+00  0.0000E+00  1.9057E+04  0.0000E+00
  16.342s  6.5704E+04  0.0000E+00  0.0000E+00  0.0000E+00  9.0000E+01  9.0000E+01  9.0000E+01  0.0000E+00  1.4472E+00

  rolling  3.0907E+03  3.0824E+02 -8.1994E+02 -2.1505E+03 -1.6592E+03  0.0000E+00  2.6034E+03  3.8638E+02  0.0000E+00
 averages  4.5408E+03  0.0000E+00  3.7814E+02 -1.9662E+04  1.6576E+03  0.0000E+00  0.0000E+00  1.8382E+04  0.0000E+00
           6.5704E+04  0.0000E+00  0.0000E+00  0.0000E+00  9.0000E+01  9.0000E+01  9.0000E+01  0.0000E+00  2.1589E+00
 ------------------------------------------------------------------------------------------------------------------------
      190  3.0905E+03  2.7831E+02 -9.7237E+02 -2.1931E+03 -1.6670E+03  0.0000E+00  2.5202E+03  3.6760E+02  0.0000E+00
 190.000f  4.1398E+03  0.0000E+00 -4.7420E+02 -1.9082E+04  1.6524E+03  0.0000E+00  0.0000E+00  1.6956E+04  0.0000E+00
  17.200s  6.5704E+04  0.0000E+00  0.0000E+00  0.0000E+00  9.0000E+01  9.0000E+01  9.0000E+01  0.0000E+00  2.2330E+00

  rolling  3.0903E+03  3.0401E+02 -8.5373E+02 -2.1562E+03 -1.6610E+03  0.0000E+00  2.5784E+03  3.8509E+02  0.0000E+00
 averages  4.4268E+03  0.0000E+00  3.9275E+02 -1.9582E+04  1.6568E+03  0.0000E+00  0.0000E+00  1.8318E+04  0.0000E+00
           6.5704E+04  0.0000E+00  0.0000E+00  0.0000E+00  9.0000E+01  9.0000E+01  9.0000E+01  0.0000E+00  2.1223E+00
 ------------------------------------------------------------------------------------------------------------------------
      200  3.0900E+03  2.7213E+02 -9.7863E+02 -2.2280E+03 -1.6695E+03  0.0000E+00  2.5483E+03  3.7053E+02  0.0000E+00
 200.000f  3.4489E+03  0.0000E+00  1.2497E+03 -1.8617E+04  1.6573E+03  0.0000E+00  0.0000E+00  1.8209E+04  0.0000E+00
  17.965s  6.5704E+04  0.0000E+00  0.0000E+00  0.0000E+00  9.0000E+01  9.0000E+01  9.0000E+01  0.0000E+00  1.5874E+00

  rolling  3.0899E+03  3.0009E+02 -8.9131E+02 -2.1614E+03 -1.6628E+03  0.0000E+00  2.5498E+03  3.8313E+02  0.0000E+00
 averages  4.3390E+03  0.0000E+00  3.3430E+02 -1.9509E+04  1.6564E+03  0.0000E+00  0.0000E+00  1.8187E+04  0.0000E+00
           6.5704E+04  0.0000E+00  0.0000E+00  0.0000E+00  9.0000E+01  9.0000E+01  9.0000E+01  0.0000E+00  2.1136E+00
 ------------------------------------------------------------------------------------------------------------------------
      210  3.0885E+03  2.7342E+02 -1.0605E+03 -2.1880E+03 -1.6726E+03  0.0000E+00  2.4232E+03  3.7689E+02  0.0000E+00
 210.000f  3.7521E+03  0.0000E+00  1.6295E+02 -1.9130E+04  1.6626E+03  0.0000E+00  0.0000E+00  1.7630E+04  0.0000E+00
  18.818s  6.5704E+04  0.0000E+00  0.0000E+00  0.0000E+00  9.0000E+01  9.0000E+01  9.0000E+01  0.0000E+00  1.9750E+00

  rolling  3.0896E+03  2.9576E+02 -9.2386E+02 -2.1669E+03 -1.6648E+03  0.0000E+00  2.5268E+03  3.8101E+02  0.0000E+00
 averages  4.2079E+03  0.0000E+00  3.9871E+02 -1.9431E+04  1.6566E+03  0.0000E+00  0.0000E+00  1.8173E+04  0.0000E+00
           6.5704E+04  0.0000E+00  0.0000E+00  0.0000E+00  9.0000E+01  9.0000E+01  9.0000E+01  0.0000E+00  2.0590E+00
 ------------------------------------------------------------------------------------------------------------------------
      220  3.0875E+03  2.7293E+02 -1.1169E+03 -2.2040E+03 -1.6739E+03  0.0000E+00  2.3828E+03  3.7819E+02  0.0000E+00
 220.000f  3.3515E+03  0.0000E+00  1.1698E+03 -1.8905E+04  1.6660E+03  0.0000E+00  0.0000E+00  1.8409E+04  0.0000E+00
  19.579s  6.5704E+04  0.0000E+00  0.0000E+00  0.0000E+00  9.0000E+01  9.0000E+01  9.0000E+01  0.0000E+00  1.6211E+00

  rolling  3.0892E+03  2.9181E+02 -9.5911E+02 -2.1704E+03 -1.6665E+03  0.0000E+00  2.4989E+03  3.7883E+02  0.0000E+00
 averages  4.1320E+03  0.0000E+00  3.1014E+02 -1.9381E+04  1.6569E+03  0.0000E+00  0.0000E+00  1.8034E+04  0.0000E+00
           6.5704E+04  0.0000E+00  0.0000E+00  0.0000E+00  9.0000E+01  9.0000E+01  9.0000E+01  0.0000E+00  2.0605E+00
 ------------------------------------------------------------------------------------------------------------------------
      230  3.0873E+03  2.6952E+02 -1.1366E+03 -2.2338E+03 -1.6744E+03  0.0000E+00  2.3955E+03  3.7611E+02  0.0000E+00
 230.000f  3.4701E+03  0.0000E+00  5.7281E+02 -1.8483E+04  1.6679E+03  0.0000E+00  0.0000E+00  1.7388E+04  0.0000E+00
  20.436s  6.5704E+04  0.0000E+00  0.0000E+00  0.0000E+00  9.0000E+01  9.0000E+01  9.0000E+01  0.0000E+00  1.8034E+00

  rolling  3.0888E+03  2.8803E+02 -9.9389E+02 -2.1808E+03 -1.6679E+03  0.0000E+00  2.4780E+03  3.7683E+02  0.0000E+00
 averages  3.9746E+03  0.0000E+00  4.7576E+02 -1.9238E+04  1.6575E+03  0.0000E+00  0.0000E+00  1.8056E+04  0.0000E+00
           6.5704E+04  0.0000E+00  0.0000E+00  0.0000E+00  9.0000E+01  9.0000E+01  9.0000E+01  0.0000E+00  1.9748E+00
 ------------------------------------------------------------------------------------------------------------------------
 ------------------------------------------------------------------------------------------------------------------------

     step     eng_tot    temp_tot     eng_cfg     eng_vdw     eng_cou     eng_bnd     eng_ang     eng_dih     eng_tet
 time          eng_pv    temp_rot     vir_cfg     vir_vdw     vir_cou     vir_bnd     vir_ang     vir_con     vir_tet
 cpu time      volume    temp_shl     eng_shl     vir_shl       alpha        beta       gamma     vir_pmf       press

 ------------------------------------------------------------------------------------------------------------------------
      240  3.0858E+03  2.7914E+02 -1.2913E+03 -2.2458E+03 -1.6741E+03  0.0000E+00  2.2565E+03  3.7208E+02  0.0000E+00
 240.000f  2.9309E+03  0.0000E+00  2.2400E+03 -1.8306E+04  1.6675E+03  0.0000E+00  0.0000E+00  1.8878E+04  0.0000E+00
  21.290s  6.5704E+04  0.0000E+00  0.0000E+00  0.0000E+00  9.0000E+01  9.0000E+01  9.0000E+01  0.0000E+00  1.2950E+00

  rolling  3.0885E+03  2.8447E+02 -1.0281E+03 -2.1886E+03 -1.6689E+03  0.0000E+00  2.4542E+03  3.7529E+02  0.0000E+00
 averages  3.8833E+03  0.0000E+00  4.5688E+02 -1.9126E+04  1.6580E+03  0.0000E+00  0.0000E+00  1.7925E+04  0.0000E+00
           6.5704E+04  0.0000E+00  0.0000E+00  0.0000E+00  9.0000E+01  9.0000E+01  9.0000E+01  0.0000E+00  1.9548E+00
 ------------------------------------------------------------------------------------------------------------------------
      250  3.0867E+03  2.7017E+02 -1.2396E+03 -2.2571E+03 -1.6734E+03  0.0000E+00  2.3188E+03  3.7201E+02  0.0000E+00
 250.000f  2.8768E+03  0.0000E+00  2.0781E+03 -1.8121E+04  1.6656E+03  0.0000E+00  0.0000E+00  1.8533E+04  0.0000E+00
  22.060s  6.5704E+04  0.0000E+00  0.0000E+00  0.0000E+00  9.0000E+01  9.0000E+01  9.0000E+01  0.0000E+00  1.2846E+00

  rolling  3.0882E+03  2.8099E+02 -1.0595E+03 -2.1987E+03 -1.6698E+03  0.0000E+00  2.4348E+03  3.7424E+02  0.0000E+00
 averages  3.6956E+03  0.0000E+00  7.3989E+02 -1.8982E+04  1.6588E+03  0.0000E+00  0.0000E+00  1.8063E+04  0.0000E+00
           6.5704E+04  0.0000E+00  0.0000E+00  0.0000E+00  9.0000E+01  9.0000E+01  9.0000E+01  0.0000E+00  1.8305E+00
 ------------------------------------------------------------------------------------------------------------------------
      260  3.0871E+03  2.6397E+02 -1.2130E+03 -2.2268E+03 -1.6727E+03  0.0000E+00  2.3140E+03  3.7253E+02  0.0000E+00
 260.000f  3.2809E+03  0.0000E+00  6.1480E+02 -1.8492E+04  1.6640E+03  0.0000E+00  0.0000E+00  1.7443E+04  0.0000E+00
  22.816s  6.5704E+04  0.0000E+00  0.0000E+00  0.0000E+00  9.0000E+01  9.0000E+01  9.0000E+01  0.0000E+00  1.7476E+00

  rolling  3.0879E+03  2.7826E+02 -1.0948E+03 -2.2107E+03 -1.6705E+03  0.0000E+00  2.4129E+03  3.7345E+02  0.0000E+00
 averages  3.5927E+03  0.0000E+00  7.9676E+02 -1.8811E+04  1.6598E+03  0.0000E+00  0.0000E+00  1.7948E+04  0.0000E+00
           6.5704E+04  0.0000E+00  0.0000E+00  0.0000E+00  9.0000E+01  9.0000E+01  9.0000E+01  0.0000E+00  1.7904E+00
 ------------------------------------------------------------------------------------------------------------------------
      270  3.0864E+03  2.6863E+02 -1.2963E+03 -2.2909E+03 -1.6752E+03  0.0000E+00  2.3027E+03  3.6709E+02  0.0000E+00
 270.000f  2.1901E+03  0.0000E+00  3.8861E+03 -1.7628E+04  1.6647E+03  0.0000E+00  0.0000E+00  1.9849E+04  0.0000E+00
  23.670s  6.5704E+04  0.0000E+00  0.0000E+00  0.0000E+00  9.0000E+01  9.0000E+01  9.0000E+01  0.0000E+00  6.4426E-01

  rolling  3.0876E+03  2.7583E+02 -1.1290E+03 -2.2220E+03 -1.6714E+03  0.0000E+00  2.3918E+03  3.7264E+02  0.0000E+00
 averages  3.4057E+03  0.0000E+00  1.1260E+03 -1.8646E+04  1.6611E+03  0.0000E+00  0.0000E+00  1.8111E+04  0.0000E+00
           6.5704E+04  0.0000E+00  0.0000E+00  0.0000E+00  9.0000E+01  9.0000E+01  9.0000E+01  0.0000E+00  1.6579E+00
 ------------------------------------------------------------------------------------------------------------------------
      280  3.0875E+03  2.5794E+02 -1.2079E+03 -2.2610E+03 -1.6793E+03  0.0000E+00  2.3726E+03  3.5977E+02  0.0000E+00
 280.000f  3.2775E+03  0.0000E+00  3.1827E+02 -1.8009E+04  1.6671E+03  0.0000E+00  0.0000E+00  1.6661E+04  0.0000E+00
  24.524s  6.5704E+04  0.0000E+00  0.0000E+00  0.0000E+00  9.0000E+01  9.0000E+01  9.0000E+01  0.0000E+00  1.8059E+00

  rolling  3.0874E+03  2.7328E+02 -1.1567E+03 -2.2311E+03 -1.6726E+03  0.0000E+00  2.3754E+03  3.7160E+02  0.0000E+00
 averages  3.3090E+03  0.0000E+00  1.1963E+03 -1.8509E+04  1.6627E+03  0.0000E+00  0.0000E+00  1.8043E+04  0.0000E+00
           6.5704E+04  0.0000E+00  0.0000E+00  0.0000E+00  9.0000E+01  9.0000E+01  9.0000E+01  0.0000E+00  1.6144E+00
 ------------------------------------------------------------------------------------------------------------------------
      290  3.0872E+03  2.6435E+02 -1.2977E+03 -2.3274E+03 -1.6832E+03  0.0000E+00  2.3588E+03  3.5411E+02  0.0000E+00
 290.000f  2.0392E+03  0.0000E+00  4.1061E+03 -1.7110E+04  1.6696E+03  0.0000E+00  0.0000E+00  1.9546E+04  0.0000E+00
  25.289s  6.5704E+04  0.0000E+00  0.0000E+00  0.0000E+00  9.0000E+01  9.0000E+01  9.0000E+01  0.0000E+00  5.3594E-01

  rolling  3.0871E+03  2.7152E+02 -1.1878E+03 -2.2407E+03 -1.6741E+03  0.0000E+00  2.3567E+03  3.7038E+02  0.0000E+00
 averages  3.1749E+03  0.0000E+00  1.4115E+03 -1.8362E+04  1.6644E+03  0.0000E+00  0.0000E+00  1.8110E+04  0.0000E+00
           6.5704E+04  0.0000E+00  0.0000E+00  0.0000E+00  9.0000E+01  9.0000E+01  9.0000E+01  0.0000E+00  1.5265E+00
 ------------------------------------------------------------------------------------------------------------------------
      300  3.0867E+03  2.6892E+02 -1.3619E+03 -2.3215E+03 -1.6887E+03  0.0000E+00  2.2970E+03  3.5137E+02  0.0000E+00
 300.000f  2.9211E+03  0.0000E+00  1.5119E+03 -1.7186E+04  1.6741E+03  0.0000E+00  0.0000E+00  1.7023E+04  0.0000E+00
  26.150s  6.5704E+04  0.0000E+00  0.0000E+00  0.0000E+00  9.0000E+01  9.0000E+01  9.0000E+01  0.0000E+00  1.4723E+00

  rolling  3.0869E+03  2.6979E+02 -1.2135E+03 -2.2515E+03 -1.6759E+03  0.0000E+00  2.3450E+03  3.6882E+02  0.0000E+00
 averages  3.0557E+03  0.0000E+00  1.5995E+03 -1.8200E+04  1.6661E+03  0.0000E+00  0.0000E+00  1.8133E+04  0.0000E+00
           6.5704E+04  0.0000E+00  0.0000E+00  0.0000E+00  9.0000E+01  9.0000E+01  9.0000E+01  0.0000E+00  1.4483E+00
 ------------------------------------------------------------------------------------------------------------------------
      310  3.0878E+03  2.5729E+02 -1.2462E+03 -2.3110E+03 -1.6936E+03  0.0000E+00  2.4065E+03  3.5188E+02  0.0000E+00
 310.000f  2.0443E+03  0.0000E+00  3.8681E+03 -1.7293E+04  1.6789E+03  0.0000E+00  0.0000E+00  1.9482E+04  0.0000E+00
  26.911s  6.5704E+04  0.0000E+00  0.0000E+00  0.0000E+00  9.0000E+01  9.0000E+01  9.0000E+01  0.0000E+00  5.6623E-01

  rolling  3.0868E+03  2.6875E+02 -1.2409E+03 -2.2610E+03 -1.6779E+03  0.0000E+00  2.3315E+03  3.6658E+02  0.0000E+00
 averages  2.9515E+03  0.0000E+00  1.7743E+03 -1.8053E+04  1.6677E+03  0.0000E+00  0.0000E+00  1.8160E+04  0.0000E+00
           6.5704E+04  0.0000E+00  0.0000E+00  0.0000E+00  9.0000E+01  9.0000E+01  9.0000E+01  0.0000E+00  1.3797E+00
 ------------------------------------------------------------------------------------------------------------------------
 ------------------------------------------------------------------------------------------------------------------------

     step     eng_tot    temp_tot     eng_cfg     eng_vdw     eng_cou     eng_bnd     eng_ang     eng_dih     eng_tet
 time          eng_pv    temp_rot     vir_cfg     vir_vdw     vir_cou     vir_bnd     vir_ang     vir_con     vir_tet
 cpu time      volume    temp_shl     eng_shl     vir_shl       alpha        beta       gamma     vir_pmf       press

 ------------------------------------------------------------------------------------------------------------------------
      320  3.0867E+03  2.6564E+02 -1.3398E+03 -2.3100E+03 -1.6977E+03  0.0000E+00  2.3156E+03  3.5216E+02  0.0000E+00
 320.000f  2.9322E+03  0.0000E+00  1.3692E+03 -1.7327E+04  1.6856E+03  0.0000E+00  0.0000E+00  1.7010E+04  0.0000E+00
  27.756s  6.5704E+04  0.0000E+00  0.0000E+00  0.0000E+00  9.0000E+01  9.0000E+01  9.0000E+01  0.0000E+00  1.4975E+00

  rolling  3.0866E+03  2.6846E+02 -1.2706E+03 -2.2750E+03 -1.6801E+03  0.0000E+00  2.3205E+03  3.6394E+02  0.0000E+00
 averages  2.8074E+03  0.0000E+00  2.1020E+03 -1.7850E+04  1.6695E+03  0.0000E+00  0.0000E+00  1.8283E+04  0.0000E+00
           6.5704E+04  0.0000E+00  0.0000E+00  0.0000E+00  9.0000E+01  9.0000E+01  9.0000E+01  0.0000E+00  1.2636E+00
 ------------------------------------------------------------------------------------------------------------------------
      330  3.0866E+03  2.6611E+02 -1.3423E+03 -2.3052E+03 -1.7028E+03  0.0000E+00  2.3099E+03  3.5574E+02  0.0000E+00
 330.000f  2.2806E+03  0.0000E+00  3.3416E+03 -1.7376E+04  1.6930E+03  0.0000E+00  0.0000E+00  1.9024E+04  0.0000E+00
  28.523s  6.5704E+04  0.0000E+00  0.0000E+00  0.0000E+00  9.0000E+01  9.0000E+01  9.0000E+01  0.0000E+00  8.1488E-01

  rolling  3.0865E+03  2.6753E+02 -1.2876E+03 -2.2817E+03 -1.6827E+03  0.0000E+00  2.3152E+03  3.6165E+02  0.0000E+00
 averages  2.7812E+03  0.0000E+00  2.0801E+03 -1.7743E+04  1.6718E+03  0.0000E+00  0.0000E+00  1.8152E+04  0.0000E+00
           6.5704E+04  0.0000E+00  0.0000E+00  0.0000E+00  9.0000E+01  9.0000E+01  9.0000E+01  0.0000E+00  1.2643E+00
 ------------------------------------------------------------------------------------------------------------------------
      340  3.0870E+03  2.6125E+02 -1.2813E+03 -2.2582E+03 -1.7079E+03  0.0000E+00  2.3259E+03  3.5885E+02  0.0000E+00
 340.000f  2.8187E+03  0.0000E+00  1.6510E+03 -1.8007E+04  1.6985E+03  0.0000E+00  0.0000E+00  1.7959E+04  0.0000E+00
  29.291s  6.5704E+04  0.0000E+00  0.0000E+00  0.0000E+00  9.0000E+01  9.0000E+01  9.0000E+01  0.0000E+00  1.3669E+00

  rolling  3.0864E+03  2.6711E+02 -1.3041E+03 -2.2875E+03 -1.6859E+03  0.0000E+00  2.3093E+03  3.6000E+02  0.0000E+00
 averages  2.6489E+03  0.0000E+00  2.4051E+03 -1.7652E+04  1.6746E+03  0.0000E+00  0.0000E+00  1.8383E+04  0.0000E+00
           6.5704E+04  0.0000E+00  0.0000E+00  0.0000E+00  9.0000E+01  9.0000E+01  9.0000E+01  0.0000E+00  1.1481E+00
 ------------------------------------------------------------------------------------------------------------------------
      350  3.0855E+03  2.7433E+02 -1.4078E+03 -2.2923E+03 -1.7092E+03  0.0000E+00  2.2308E+03  3.6292E+02  0.0000E+00
 350.000f  2.6247E+03  0.0000E+00  2.5522E+03 -1.7552E+04  1.7002E+03  0.0000E+00  0.0000E+00  1.8404E+04  0.0000E+00
  30.147s  6.5704E+04  0.0000E+00  0.0000E+00  0.0000E+00  9.0000E+01  9.0000E+01  9.0000E+01  0.0000E+00  1.1506E+00

  rolling  3.0863E+03  2.6698E+02 -1.3178E+03 -2.2901E+03 -1.6894E+03  0.0000E+00  2.3029E+03  3.5888E+02  0.0000E+00
 averages  2.6735E+03  0.0000E+00  2.2833E+03 -1.7607E+04  1.6780E+03  0.0000E+00  0.0000E+00  1.8212E+04  0.0000E+00
           6.5704E+04  0.0000E+00  0.0000E+00  0.0000E+00  9.0000E+01  9.0000E+01  9.0000E+01  0.0000E+00  1.1895E+00
 ------------------------------------------------------------------------------------------------------------------------
      360  3.0864E+03  2.6693E+02 -1.3075E+03 -2.2594E+03 -1.7109E+03  0.0000E+00  2.2967E+03  3.6607E+02  0.0000E+00
 360.000f  2.7034E+03  0.0000E+00  2.2217E+03 -1.7998E+04  1.7004E+03  0.0000E+00  0.0000E+00  1.8519E+04  0.0000E+00
  30.907s  6.5704E+04  0.0000E+00  0.0000E+00  0.0000E+00  9.0000E+01  9.0000E+01  9.0000E+01  0.0000E+00  1.2106E+00

  rolling  3.0863E+03  2.6657E+02 -1.3223E+03 -2.2928E+03 -1.6931E+03  0.0000E+00  2.3055E+03  3.5811E+02  0.0000E+00
 averages  2.5991E+03  0.0000E+00  2.4709E+03 -1.7563E+04  1.6815E+03  0.0000E+00  0.0000E+00  1.8352E+04  0.0000E+00
           6.5704E+04  0.0000E+00  0.0000E+00  0.0000E+00  9.0000E+01  9.0000E+01  9.0000E+01  0.0000E+00  1.1212E+00
 ------------------------------------------------------------------------------------------------------------------------
      370  3.0860E+03  2.7218E+02 -1.3373E+03 -2.2755E+03 -1.7133E+03  0.0000E+00  2.2869E+03  3.6454E+02  0.0000E+00
 370.000f  2.7232E+03  0.0000E+00  2.3531E+03 -1.7783E+04  1.7005E+03  0.0000E+00  0.0000E+00  1.8436E+04  0.0000E+00
  31.766s  6.5704E+04  0.0000E+00  0.0000E+00  0.0000E+00  9.0000E+01  9.0000E+01  9.0000E+01  0.0000E+00  1.2039E+00

  rolling  3.0863E+03  2.6736E+02 -1.3338E+03 -2.2931E+03 -1.6970E+03  0.0000E+00  2.2986E+03  3.5765E+02  0.0000E+00
 averages  2.6268E+03  0.0000E+00  2.3956E+03 -1.7554E+04  1.6852E+03  0.0000E+00  0.0000E+00  1.8264E+04  0.0000E+00
           6.5704E+04  0.0000E+00  0.0000E+00  0.0000E+00  9.0000E+01  9.0000E+01  9.0000E+01  0.0000E+00  1.1533E+00
 ------------------------------------------------------------------------------------------------------------------------
      380  3.0857E+03  2.7862E+02 -1.3746E+03 -2.2933E+03 -1.7140E+03  0.0000E+00  2.2698E+03  3.6290E+02  0.0000E+00
 380.000f  2.3794E+03  0.0000E+00  3.6165E+03 -1.7576E+04  1.6996E+03  0.0000E+00  0.0000E+00  1.9493E+04  0.0000E+00
  32.625s  6.5704E+04  0.0000E+00  0.0000E+00  0.0000E+00  9.0000E+01  9.0000E+01  9.0000E+01  0.0000E+00  8.1225E-01

  rolling  3.0863E+03  2.6809E+02 -1.3386E+03 -2.2953E+03 -1.7006E+03  0.0000E+00  2.2995E+03  3.5773E+02  0.0000E+00
 averages  2.5721E+03  0.0000E+00  2.5845E+03 -1.7523E+04  1.6886E+03  0.0000E+00  0.0000E+00  1.8418E+04  0.0000E+00
           6.5704E+04  0.0000E+00  0.0000E+00  0.0000E+00  9.0000E+01  9.0000E+01  9.0000E+01  0.0000E+00  1.0931E+00
 ------------------------------------------------------------------------------------------------------------------------
      390  3.0872E+03  2.7019E+02 -1.2463E+03 -2.2709E+03 -1.7154E+03  0.0000E+00  2.3783E+03  3.6172E+02  0.0000E+00
 390.000f  3.2610E+03  0.0000E+00  9.0669E+02 -1.7871E+04  1.7010E+03  0.0000E+00  0.0000E+00  1.7077E+04  0.0000E+00
  33.384s  6.5704E+04  0.0000E+00  0.0000E+00  0.0000E+00  9.0000E+01  9.0000E+01  9.0000E+01  0.0000E+00  1.6923E+00

  rolling  3.0863E+03  2.6847E+02 -1.3338E+03 -2.2923E+03 -1.7039E+03  0.0000E+00  2.3041E+03  3.5834E+02  0.0000E+00
 averages  2.6341E+03  0.0000E+00  2.4330E+03 -1.7562E+04  1.6918E+03  0.0000E+00  0.0000E+00  1.8303E+04  0.0000E+00
           6.5704E+04  0.0000E+00  0.0000E+00  0.0000E+00  9.0000E+01  9.0000E+01  9.0000E+01  0.0000E+00  1.1485E+00
 ------------------------------------------------------------------------------------------------------------------------
 ------------------------------------------------------------------------------------------------------------------------

     step     eng_tot    temp_tot     eng_cfg     eng_vdw     eng_cou     eng_bnd     eng_ang     eng_dih     eng_tet
 time          eng_pv    temp_rot     vir_cfg     vir_vdw     vir_cou     vir_bnd     vir_ang     vir_con     vir_tet
 cpu time      volume    temp_shl     eng_shl     vir_shl       alpha        beta       gamma     vir_pmf       press

 ------------------------------------------------------------------------------------------------------------------------
      400  3.0870E+03  2.7838E+02 -1.2918E+03 -2.2923E+03 -1.7171E+03  0.0000E+00  2.3576E+03  3.6002E+02  0.0000E+00
 400.000f  2.2462E+03  0.0000E+00  4.2515E+03 -1.7602E+04  1.7046E+03  0.0000E+00  0.0000E+00  2.0149E+04  0.0000E+00
  34.239s  6.5704E+04  0.0000E+00  0.0000E+00  0.0000E+00  9.0000E+01  9.0000E+01  9.0000E+01  0.0000E+00  5.8954E-01

  rolling  3.0864E+03  2.6948E+02 -1.3301E+03 -2.2888E+03 -1.7069E+03  0.0000E+00  2.3065E+03  3.5907E+02  0.0000E+00
 averages  2.6198E+03  0.0000E+00  2.5411E+03 -1.7611E+04  1.6949E+03  0.0000E+00  0.0000E+00  1.8457E+04  0.0000E+00
           6.5704E+04  0.0000E+00  0.0000E+00  0.0000E+00  9.0000E+01  9.0000E+01  9.0000E+01  0.0000E+00  1.1185E+00
 ------------------------------------------------------------------------------------------------------------------------
      410  3.0876E+03  2.8046E+02 -1.2672E+03 -2.2839E+03 -1.7171E+03  0.0000E+00  2.3751E+03  3.5867E+02  0.0000E+00
 410.000f  3.3862E+03  0.0000E+00  1.0167E+03 -1.7739E+04  1.7059E+03  0.0000E+00  0.0000E+00  1.7050E+04  0.0000E+00
  35.009s  6.5704E+04  0.0000E+00  0.0000E+00  0.0000E+00  9.0000E+01  9.0000E+01  9.0000E+01  0.0000E+00  1.7303E+00

  rolling  3.0865E+03  2.7046E+02 -1.3203E+03 -2.2850E+03 -1.7095E+03  0.0000E+00  2.3144E+03  3.5986E+02  0.0000E+00
 averages  2.6836E+03  0.0000E+00  2.4316E+03 -1.7667E+04  1.6978E+03  0.0000E+00  0.0000E+00  1.8401E+04  0.0000E+00
           6.5704E+04  0.0000E+00  0.0000E+00  0.0000E+00  9.0000E+01  9.0000E+01  9.0000E+01  0.0000E+00  1.1638E+00
 ------------------------------------------------------------------------------------------------------------------------
      420  3.0888E+03  2.7921E+02 -1.2019E+03 -2.2782E+03 -1.7160E+03  0.0000E+00  2.4327E+03  3.5964E+02  0.0000E+00
 420.000f  2.5759E+03  0.0000E+00  3.5766E+03 -1.7809E+04  1.7067E+03  0.0000E+00  0.0000E+00  1.9679E+04  0.0000E+00
  35.856s  6.5704E+04  0.0000E+00  0.0000E+00  0.0000E+00  9.0000E+01  9.0000E+01  9.0000E+01  0.0000E+00  8.3050E-01

  rolling  3.0866E+03  2.7209E+02 -1.3119E+03 -2.2820E+03 -1.7116E+03  0.0000E+00  2.3211E+03  3.6063E+02  0.0000E+00
 averages  2.7427E+03  0.0000E+00  2.3666E+03 -1.7714E+04  1.7001E+03  0.0000E+00  0.0000E+00  1.8380E+04  0.0000E+00
           6.5704E+04  0.0000E+00  0.0000E+00  0.0000E+00  9.0000E+01  9.0000E+01  9.0000E+01  0.0000E+00  1.1986E+00
 ------------------------------------------------------------------------------------------------------------------------
      430  3.0877E+03  2.8721E+02 -1.2348E+03 -2.2447E+03 -1.7167E+03  0.0000E+00  2.3650E+03  3.6164E+02  0.0000E+00
 430.000f  3.4813E+03  0.0000E+00  1.1893E+03 -1.8282E+04  1.7084E+03  0.0000E+00  0.0000E+00  1.7763E+04  0.0000E+00
  36.714s  6.5704E+04  0.0000E+00  0.0000E+00  0.0000E+00  9.0000E+01  9.0000E+01  9.0000E+01  0.0000E+00  1.7204E+00

  rolling  3.0867E+03  2.7442E+02 -1.3057E+03 -2.2791E+03 -1.7132E+03  0.0000E+00  2.3252E+03  3.6132E+02  0.0000E+00
 averages  2.7453E+03  0.0000E+00  2.5013E+03 -1.7762E+04  1.7019E+03  0.0000E+00  0.0000E+00  1.8561E+04  0.0000E+00
           6.5704E+04  0.0000E+00  0.0000E+00  0.0000E+00  9.0000E+01  9.0000E+01  9.0000E+01  0.0000E+00  1.1690E+00
 ------------------------------------------------------------------------------------------------------------------------
      440  3.0881E+03  2.8654E+02 -1.1712E+03 -2.2629E+03 -1.7163E+03  0.0000E+00  2.4431E+03  3.6491E+02  0.0000E+00
 440.000f  2.9374E+03  0.0000E+00  2.9761E+03 -1.8056E+04  1.7096E+03  0.0000E+00  0.0000E+00  1.9323E+04  0.0000E+00
  37.475s  6.5704E+04  0.0000E+00  0.0000E+00  0.0000E+00  9.0000E+01  9.0000E+01  9.0000E+01  0.0000E+00  1.0939E+00

  rolling  3.0869E+03  2.7629E+02 -1.2897E+03 -2.2759E+03 -1.7143E+03  0.0000E+00  2.3385E+03  3.6193E+02  0.0000E+00
 averages  2.8593E+03  0.0000E+00  2.3074E+03 -1.7815E+04  1.7032E+03  0.0000E+00  0.0000E+00  1.8420E+04  0.0000E+00
           6.5704E+04  0.0000E+00  0.0000E+00  0.0000E+00  9.0000E+01  9.0000E+01  9.0000E+01  0.0000E+00  1.2503E+00
 ------------------------------------------------------------------------------------------------------------------------
      450  3.0884E+03  2.8881E+02 -1.1364E+03 -2.2013E+03 -1.7163E+03  0.0000E+00  2.4142E+03  3.6712E+02  0.0000E+00
 450.000f  3.9876E+03  0.0000E+00  5.1376E+01 -1.8890E+04  1.7111E+03  0.0000E+00  0.0000E+00  1.7230E+04  0.0000E+00
  38.242s  6.5704E+04  0.0000E+00  0.0000E+00  0.0000E+00  9.0000E+01  9.0000E+01  9.0000E+01  0.0000E+00  2.1282E+00

  rolling  3.0871E+03  2.7856E+02 -1.2734E+03 -2.2717E+03 -1.7150E+03  0.0000E+00  2.3509E+03  3.6246E+02  0.0000E+00
 averages  2.8846E+03  0.0000E+00  2.4015E+03 -1.7883E+04  1.7043E+03  0.0000E+00  0.0000E+00  1.8580E+04  0.0000E+00
           6.5704E+04  0.0000E+00  0.0000E+00  0.0000E+00  9.0000E+01  9.0000E+01  9.0000E+01  0.0000E+00  1.2345E+00
 ------------------------------------------------------------------------------------------------------------------------
      460  3.0884E+03  2.9455E+02 -1.1371E+03 -2.2413E+03 -1.7160E+03  0.0000E+00  2.4513E+03  3.6895E+02  0.0000E+00
 460.000f  3.0654E+03  0.0000E+00  3.1220E+03 -1.8371E+04  1.7082E+03  0.0000E+00  0.0000E+00  1.9785E+04  0.0000E+00
  39.100s  6.5704E+04  0.0000E+00  0.0000E+00  0.0000E+00  9.0000E+01  9.0000E+01  9.0000E+01  0.0000E+00  1.1026E+00

  rolling  3.0873E+03  2.8105E+02 -1.2553E+03 -2.2650E+03 -1.7156E+03  0.0000E+00  2.3626E+03  3.6277E+02  0.0000E+00
 averages  3.0147E+03  0.0000E+00  2.1987E+03 -1.7984E+04  1.7053E+03  0.0000E+00  0.0000E+00  1.8478E+04  0.0000E+00
           6.5704E+04  0.0000E+00  0.0000E+00  0.0000E+00  9.0000E+01  9.0000E+01  9.0000E+01  0.0000E+00  1.3235E+00
 ------------------------------------------------------------------------------------------------------------------------
      470  3.0888E+03  2.9519E+02 -1.0809E+03 -2.1882E+03 -1.7169E+03  0.0000E+00  2.4542E+03  3.6993E+02  0.0000E+00
 470.000f  4.1895E+03  0.0000E+00 -4.7944E+01 -1.9096E+04  1.7068E+03  0.0000E+00  0.0000E+00  1.7341E+04  0.0000E+00
  39.952s  6.5704E+04  0.0000E+00  0.0000E+00  0.0000E+00  9.0000E+01  9.0000E+01  9.0000E+01  0.0000E+00  2.2101E+00

  rolling  3.0875E+03  2.8337E+02 -1.2315E+03 -2.2606E+03 -1.7160E+03  0.0000E+00  2.3820E+03  3.6316E+02  0.0000E+00
 averages  3.0571E+03  0.0000E+00  2.2668E+03 -1.8058E+04  1.7059E+03  0.0000E+00  0.0000E+00  1.8619E+04  0.0000E+00
           6.5704E+04  0.0000E+00  0.0000E+00  0.0000E+00  9.0000E+01  9.0000E+01  9.0000E+01  0.0000E+00  1.3171E+00
 ------------------------------------------------------------------------------------------------------------------------
 ------------------------------------------------------------------------------------------------------------------------

     step     eng_tot    temp_tot     eng_cfg     eng_vdw     eng_cou     eng_bnd     eng_ang     eng_dih     eng_tet
 time          eng_pv    temp_rot     vir_cfg     vir_vdw     vir_cou     vir_bnd     vir_ang     vir_con     vir_tet
 cpu time      volume    temp_shl     eng_shl     vir_shl       alpha        beta       gamma     vir_pmf       press

 ------------------------------------------------------------------------------------------------------------------------
      480  3.0885E+03  3.0157E+02 -1.0861E+03 -2.2063E+03 -1.7161E+03  0.0000E+00  2.4663E+03  3.7003E+02  0.0000E+00
 480.000f  3.7426E+03  0.0000E+00  1.6185E+03 -1.8869E+04  1.7050E+03  0.0000E+00  0.0000E+00  1.8782E+04  0.0000E+00
  40.714s  6.5704E+04  0.0000E+00  0.0000E+00  0.0000E+00  9.0000E+01  9.0000E+01  9.0000E+01  0.0000E+00  1.6779E+00

  rolling  3.0877E+03  2.8605E+02 -1.2082E+03 -2.2505E+03 -1.7163E+03  0.0000E+00  2.3948E+03  3.6379E+02  0.0000E+00
 averages  3.2515E+03  0.0000E+00  1.8967E+03 -1.8207E+04  1.7065E+03  0.0000E+00  0.0000E+00  1.8397E+04  0.0000E+00
           6.5704E+04  0.0000E+00  0.0000E+00  0.0000E+00  9.0000E+01  9.0000E+01  9.0000E+01  0.0000E+00  1.4657E+00
 ------------------------------------------------------------------------------------------------------------------------
      490  3.0893E+03  3.0160E+02 -1.0221E+03 -2.1872E+03 -1.7153E+03  0.0000E+00  2.5110E+03  3.6935E+02  0.0000E+00
 490.000f  3.9335E+03  0.0000E+00  1.2391E+03 -1.9137E+04  1.7024E+03  0.0000E+00  0.0000E+00  1.8673E+04  0.0000E+00
  41.575s  6.5704E+04  0.0000E+00  0.0000E+00  0.0000E+00  9.0000E+01  9.0000E+01  9.0000E+01  0.0000E+00  1.8101E+00

  rolling  3.0880E+03  2.8857E+02 -1.1802E+03 -2.2434E+03 -1.7164E+03  0.0000E+00  2.4151E+03  3.6455E+02  0.0000E+00
 averages  3.2940E+03  0.0000E+00  1.9875E+03 -1.8315E+04  1.7069E+03  0.0000E+00  0.0000E+00  1.8595E+04  0.0000E+00
           6.5704E+04  0.0000E+00  0.0000E+00  0.0000E+00  9.0000E+01  9.0000E+01  9.0000E+01  0.0000E+00  1.4529E+00
 ------------------------------------------------------------------------------------------------------------------------
      500  3.0893E+03  3.0488E+02 -9.9302E+02 -2.1959E+03 -1.7135E+03  0.0000E+00  2.5476E+03  3.6886E+02  0.0000E+00
 500.000f  4.2369E+03  0.0000E+00  5.9122E+02 -1.9016E+04  1.6980E+03  0.0000E+00  0.0000E+00  1.7909E+04  0.0000E+00
  42.433s  6.5704E+04  0.0000E+00  0.0000E+00  0.0000E+00  9.0000E+01  9.0000E+01  9.0000E+01  0.0000E+00  2.0598E+00

  rolling  3.0882E+03  2.9132E+02 -1.1523E+03 -2.2332E+03 -1.7162E+03  0.0000E+00  2.4317E+03  3.6548E+02  0.0000E+00
 averages  3.4857E+03  0.0000E+00  1.6429E+03 -1.8465E+04  1.7066E+03  0.0000E+00  0.0000E+00  1.8401E+04  0.0000E+00
           6.5704E+04  0.0000E+00  0.0000E+00  0.0000E+00  9.0000E+01  9.0000E+01  9.0000E+01  0.0000E+00  1.5932E+00
 ------------------------------------------------------------------------------------------------------------------------
      510  3.0895E+03  3.1134E+02 -9.9888E+02 -2.1984E+03 -1.7101E+03  0.0000E+00  2.5433E+03  3.6631E+02  0.0000E+00
 510.000f  3.9052E+03  0.0000E+00  1.9135E+03 -1.9002E+04  1.6939E+03  0.0000E+00  0.0000E+00  1.9222E+04  0.0000E+00
  43.212s  6.5704E+04  0.0000E+00  0.0000E+00  0.0000E+00  9.0000E+01  9.0000E+01  9.0000E+01  0.0000E+00  1.6478E+00

  rolling  3.0885E+03  2.9416E+02 -1.1235E+03 -2.2249E+03 -1.7157E+03  0.0000E+00  2.4508E+03  3.6631E+02  0.0000E+00
 averages  3.5644E+03  0.0000E+00  1.6452E+03 -1.8588E+04  1.7056E+03  0.0000E+00  0.0000E+00  1.8527E+04  0.0000E+00
           6.5704E+04  0.0000E+00  0.0000E+00  0.0000E+00  9.0000E+01  9.0000E+01  9.0000E+01  0.0000E+00  1.6135E+00
 ------------------------------------------------------------------------------------------------------------------------
      520  3.0903E+03  3.1111E+02 -9.3423E+02 -2.1445E+03 -1.7051E+03  0.0000E+00  2.5489E+03  3.6647E+02  0.0000E+00
 520.000f  4.9179E+03  0.0000E+00 -9.4261E+02 -1.9696E+04  1.6883E+03  0.0000E+00  0.0000E+00  1.7065E+04  0.0000E+00
  44.075s  6.5704E+04  0.0000E+00  0.0000E+00  0.0000E+00  9.0000E+01  9.0000E+01  9.0000E+01  0.0000E+00  2.6396E+00

  rolling  3.0888E+03  2.9686E+02 -1.0918E+03 -2.2123E+03 -1.7148E+03  0.0000E+00  2.4683E+03  3.6699E+02  0.0000E+00
 averages  3.7490E+03  0.0000E+00  1.3306E+03 -1.8767E+04  1.7041E+03  0.0000E+00  0.0000E+00  1.8394E+04  0.0000E+00
           6.5704E+04  0.0000E+00  0.0000E+00  0.0000E+00  9.0000E+01  9.0000E+01  9.0000E+01  0.0000E+00  1.7430E+00
 ------------------------------------------------------------------------------------------------------------------------
      530  3.0902E+03  3.1355E+02 -9.0167E+02 -2.1810E+03 -1.7006E+03  0.0000E+00  2.6074E+03  3.7258E+02  0.0000E+00
 530.000f  3.8585E+03  0.0000E+00  2.4634E+03 -1.9224E+04  1.6838E+03  0.0000E+00  0.0000E+00  2.0003E+04  0.0000E+00
  44.930s  6.5704E+04  0.0000E+00  0.0000E+00  0.0000E+00  9.0000E+01  9.0000E+01  9.0000E+01  0.0000E+00  1.4729E+00

  rolling  3.0890E+03  2.9954E+02 -1.0591E+03 -2.2027E+03 -1.7134E+03  0.0000E+00  2.4892E+03  3.6789E+02  0.0000E+00
 averages  3.8686E+03  0.0000E+00  1.2127E+03 -1.8904E+04  1.7018E+03  0.0000E+00  0.0000E+00  1.8415E+04  0.0000E+00
           6.5704E+04  0.0000E+00  0.0000E+00  0.0000E+00  9.0000E+01  9.0000E+01  9.0000E+01  0.0000E+00  1.8039E+00
 ------------------------------------------------------------------------------------------------------------------------
      540  3.0903E+03  3.1698E+02 -8.8299E+02 -2.1029E+03 -1.6977E+03  0.0000E+00  2.5386E+03  3.7897E+02  0.0000E+00
 540.000f  5.5357E+03  0.0000E+00 -2.3292E+03 -2.0262E+04  1.6844E+03  0.0000E+00  0.0000E+00  1.6248E+04  0.0000E+00
  45.702s  6.5704E+04  0.0000E+00  0.0000E+00  0.0000E+00  9.0000E+01  9.0000E+01  9.0000E+01  0.0000E+00  3.1656E+00

  rolling  3.0893E+03  3.0219E+02 -1.0260E+03 -2.1908E+03 -1.7116E+03  0.0000E+00  2.5072E+03  3.6919E+02  0.0000E+00
 averages  4.0387E+03  0.0000E+00  9.4359E+02 -1.9072E+04  1.6993E+03  0.0000E+00  0.0000E+00  1.8316E+04  0.0000E+00
           6.5704E+04  0.0000E+00  0.0000E+00  0.0000E+00  9.0000E+01  9.0000E+01  9.0000E+01  0.0000E+00  1.9172E+00
 ------------------------------------------------------------------------------------------------------------------------
      550  3.0910E+03  3.1811E+02 -8.4244E+02 -2.1551E+03 -1.6948E+03  0.0000E+00  2.6240E+03  3.8352E+02  0.0000E+00
 550.000f  3.9951E+03  0.0000E+00  2.4751E+03 -1.9587E+04  1.6850E+03  0.0000E+00  0.0000E+00  2.0378E+04  0.0000E+00
  46.566s  6.5704E+04  0.0000E+00  0.0000E+00  0.0000E+00  9.0000E+01  9.0000E+01  9.0000E+01  0.0000E+00  1.5028E+00

  rolling  3.0896E+03  3.0497E+02 -9.9460E+02 -2.1814E+03 -1.7096E+03  0.0000E+00  2.5256E+03  3.7076E+02  0.0000E+00
 averages  4.1731E+03  0.0000E+00  7.8303E+02 -1.9204E+04  1.6967E+03  0.0000E+00  0.0000E+00  1.8291E+04  0.0000E+00
           6.5704E+04  0.0000E+00  0.0000E+00  0.0000E+00  9.0000E+01  9.0000E+01  9.0000E+01  0.0000E+00  1.9937E+00
 ------------------------------------------------------------------------------------------------------------------------
 ------------------------------------------------------------------------------------------------------------------------

     step     eng_tot    temp_tot     eng_cfg     eng_vdw     eng_cou     eng_bnd     eng_ang     eng_dih     eng_tet
 time          eng_pv    temp_rot     vir_cfg     vir_vdw     vir_cou     vir_bnd     vir_ang     vir_con     vir_tet
 cpu time      volume    temp_shl     eng_shl     vir_shl       alpha        beta       gamma     vir_pmf       press

 ------------------------------------------------------------------------------------------------------------------------
      560  3.0899E+03  3.3048E+02 -9.2765E+02 -2.1320E+03 -1.6940E+03  0.0000E+00  2.5146E+03  3.8368E+02  0.0000E+00
 560.000f  5.3767E+03  0.0000E+00 -1.2651E+03 -1.9899E+04  1.6874E+03  0.0000E+00  0.0000E+00  1.6947E+04  0.0000E+00
  47.341s  6.5704E+04  0.0000E+00  0.0000E+00  0.0000E+00  9.0000E+01  9.0000E+01  9.0000E+01  0.0000E+00  2.8957E+00

  rolling  3.0899E+03  3.0812E+02 -9.6814E+02 -2.1738E+03 -1.7074E+03  0.0000E+00  2.5407E+03  3.7236E+02  0.0000E+00
 averages  4.2653E+03  0.0000E+00  7.5354E+02 -1.9313E+04  1.6944E+03  0.0000E+00  0.0000E+00  1.8372E+04  0.0000E+00
           6.5704E+04  0.0000E+00  0.0000E+00  0.0000E+00  9.0000E+01  9.0000E+01  9.0000E+01  0.0000E+00  2.0274E+00
 ------------------------------------------------------------------------------------------------------------------------
      570  3.0906E+03  3.2829E+02 -8.6163E+02 -2.1458E+03 -1.6943E+03  0.0000E+00  2.5966E+03  3.8182E+02  0.0000E+00
 570.000f  4.4398E+03  0.0000E+00  1.6269E+03 -1.9716E+04  1.6916E+03  0.0000E+00  0.0000E+00  1.9652E+04  0.0000E+00
  48.206s  6.5704E+04  0.0000E+00  0.0000E+00  0.0000E+00  9.0000E+01  9.0000E+01  9.0000E+01  0.0000E+00  1.8735E+00

  rolling  3.0901E+03  3.1090E+02 -9.3947E+02 -2.1658E+03 -1.7052E+03  0.0000E+00  2.5578E+03  3.7374E+02  0.0000E+00
 averages  4.4374E+03  0.0000E+00  4.7183E+02 -1.9426E+04  1.6926E+03  0.0000E+00  0.0000E+00  1.8205E+04  0.0000E+00
           6.5704E+04  0.0000E+00  0.0000E+00  0.0000E+00  9.0000E+01  9.0000E+01  9.0000E+01  0.0000E+00  2.1460E+00
 ------------------------------------------------------------------------------------------------------------------------
      580  3.0908E+03  3.2798E+02 -8.2191E+02 -2.1151E+03 -1.6922E+03  0.0000E+00  2.6035E+03  3.8193E+02  0.0000E+00
 580.000f  5.1568E+03  0.0000E+00 -4.2132E+02 -2.0125E+04  1.6919E+03  0.0000E+00  0.0000E+00  1.8012E+04  0.0000E+00
  49.071s  6.5704E+04  0.0000E+00  0.0000E+00  0.0000E+00  9.0000E+01  9.0000E+01  9.0000E+01  0.0000E+00  2.5837E+00

  rolling  3.0904E+03  3.1375E+02 -9.1402E+02 -2.1600E+03 -1.7028E+03  0.0000E+00  2.5739E+03  3.7491E+02  0.0000E+00
 averages  4.4514E+03  0.0000E+00  6.5877E+02 -1.9509E+04  1.6912E+03  0.0000E+00  0.0000E+00  1.8476E+04  0.0000E+00
           6.5704E+04  0.0000E+00  0.0000E+00  0.0000E+00  9.0000E+01  9.0000E+01  9.0000E+01  0.0000E+00  2.1022E+00
 ------------------------------------------------------------------------------------------------------------------------
      590  3.0903E+03  3.3110E+02 -8.2600E+02 -2.1349E+03 -1.6904E+03  0.0000E+00  2.6150E+03  3.8432E+02  0.0000E+00
 590.000f  4.7828E+03  0.0000E+00  8.5490E+02 -1.9857E+04  1.6920E+03  0.0000E+00  0.0000E+00  1.9020E+04  0.0000E+00
  49.838s  6.5704E+04  0.0000E+00  0.0000E+00  0.0000E+00  9.0000E+01  9.0000E+01  9.0000E+01  0.0000E+00  2.1629E+00

  rolling  3.0906E+03  3.1639E+02 -8.8936E+02 -2.1508E+03 -1.7004E+03  0.0000E+00  2.5856E+03  3.7625E+02  0.0000E+00
 averages  4.6314E+03  0.0000E+00  3.3350E+02 -1.9634E+04  1.6901E+03  0.0000E+00  0.0000E+00  1.8277E+04  0.0000E+00
           6.5704E+04  0.0000E+00  0.0000E+00  0.0000E+00  9.0000E+01  9.0000E+01  9.0000E+01  0.0000E+00  2.2350E+00
 ------------------------------------------------------------------------------------------------------------------------
      600  3.0915E+03  3.2720E+02 -7.5997E+02 -2.1151E+03 -1.6897E+03  0.0000E+00  2.6560E+03  3.8877E+02  0.0000E+00
 600.000f  5.0847E+03  0.0000E+00 -6.0708E+01 -2.0134E+04  1.6927E+03  0.0000E+00  0.0000E+00  1.8381E+04  0.0000E+00
  50.696s  6.5704E+04  0.0000E+00  0.0000E+00  0.0000E+00  9.0000E+01  9.0000E+01  9.0000E+01  0.0000E+00  2.4524E+00

  rolling  3.0909E+03  3.1838E+02 -8.6153E+02 -2.1448E+03 -1.6979E+03  0.0000E+00  2.6033E+03  3.7798E+02  0.0000E+00
 averages  4.6533E+03  0.0000E+00  4.5750E+02 -1.9715E+04  1.6893E+03  0.0000E+00  0.0000E+00  1.8484E+04  0.0000E+00
           6.5704E+04  0.0000E+00  0.0000E+00  0.0000E+00  9.0000E+01  9.0000E+01  9.0000E+01  0.0000E+00  2.2066E+00
 ------------------------------------------------------------------------------------------------------------------------
      610  3.0918E+03  3.2872E+02 -7.5900E+02 -2.1127E+03 -1.6889E+03  0.0000E+00  2.6483E+03  3.9428E+02  0.0000E+00
 610.000f  5.1493E+03  0.0000E+00 -1.7101E+02 -2.0191E+04  1.6914E+03  0.0000E+00  0.0000E+00  1.8328E+04  0.0000E+00
  51.472s  6.5704E+04  0.0000E+00  0.0000E+00  0.0000E+00  9.0000E+01  9.0000E+01  9.0000E+01  0.0000E+00  2.5021E+00

  rolling  3.0911E+03  3.2067E+02 -8.4135E+02 -2.1363E+03 -1.6957E+03  0.0000E+00  2.6103E+03  3.8035E+02  0.0000E+00
 averages  4.8101E+03  0.0000E+00  1.7001E+02 -1.9835E+04  1.6890E+03  0.0000E+00  0.0000E+00  1.8316E+04  0.0000E+00
           6.5704E+04  0.0000E+00  0.0000E+00  0.0000E+00  9.0000E+01  9.0000E+01  9.0000E+01  0.0000E+00  2.3236E+00
 ------------------------------------------------------------------------------------------------------------------------
      620  3.0916E+03  3.2965E+02 -7.5959E+02 -2.1243E+03 -1.6873E+03  0.0000E+00  2.6519E+03  4.0010E+02  0.0000E+00
 620.000f  4.7910E+03  0.0000E+00  9.5220E+02 -2.0037E+04  1.6905E+03  0.0000E+00  0.0000E+00  1.9299E+04  0.0000E+00
  52.336s  6.5704E+04  0.0000E+00  0.0000E+00  0.0000E+00  9.0000E+01  9.0000E+01  9.0000E+01  0.0000E+00  2.1183E+00

  rolling  3.0913E+03  3.2236E+02 -8.1972E+02 -2.1326E+03 -1.6937E+03  0.0000E+00  2.6231E+03  3.8355E+02  0.0000E+00
 averages  4.8071E+03  0.0000E+00  3.3425E+02 -1.9889E+04  1.6889E+03  0.0000E+00  0.0000E+00  1.8534E+04  0.0000E+00
           6.5704E+04  0.0000E+00  0.0000E+00  0.0000E+00  9.0000E+01  9.0000E+01  9.0000E+01  0.0000E+00  2.2791E+00
 ------------------------------------------------------------------------------------------------------------------------
      630  3.0927E+03  3.2449E+02 -7.0110E+02 -2.1327E+03 -1.6892E+03  0.0000E+00  2.7224E+03  3.9831E+02  0.0000E+00
 630.000f  5.3852E+03  0.0000E+00 -9.3089E+02 -1.9963E+04  1.6956E+03  0.0000E+00  0.0000E+00  1.7337E+04  0.0000E+00
  53.195s  6.5704E+04  0.0000E+00  0.0000E+00  0.0000E+00  9.0000E+01  9.0000E+01  9.0000E+01  0.0000E+00  2.7350E+00

  rolling  3.0914E+03  3.2391E+02 -8.0204E+02 -2.1282E+03 -1.6923E+03  0.0000E+00  2.6319E+03  3.8655E+02  0.0000E+00
 averages  4.9286E+03  0.0000E+00  1.0528E+02 -1.9957E+04  1.6897E+03  0.0000E+00  0.0000E+00  1.8373E+04  0.0000E+00
           6.5704E+04  0.0000E+00  0.0000E+00  0.0000E+00  9.0000E+01  9.0000E+01  9.0000E+01  0.0000E+00  2.3702E+00
 ------------------------------------------------------------------------------------------------------------------------
 ------------------------------------------------------------------------------------------------------------------------

     step     eng_tot    temp_tot     eng_cfg     eng_vdw     eng_cou     eng_bnd     eng_ang     eng_dih     eng_tet
 time          eng_pv    temp_rot     vir_cfg     vir_vdw     vir_cou     vir_bnd     vir_ang     vir_con     vir_tet
 cpu time      volume    temp_shl     eng_shl     vir_shl       alpha        beta       gamma     vir_pmf       press

 ------------------------------------------------------------------------------------------------------------------------
      640  3.0924E+03  3.2671E+02 -7.3021E+02 -2.1372E+03 -1.6895E+03  0.0000E+00  2.7030E+03  3.9343E+02  0.0000E+00
 640.000f  4.3373E+03  0.0000E+00  2.2444E+03 -1.9897E+04  1.6993E+03  0.0000E+00  0.0000E+00  2.0442E+04  0.0000E+00
  53.957s  6.5704E+04  0.0000E+00  0.0000E+00  0.0000E+00  9.0000E+01  9.0000E+01  9.0000E+01  0.0000E+00  1.6469E+00

  rolling  3.0915E+03  3.2553E+02 -7.9103E+02 -2.1294E+03 -1.6914E+03  0.0000E+00  2.6413E+03  3.8849E+02  0.0000E+00
 averages  4.8874E+03  0.0000E+00  3.4861E+02 -1.9951E+04  1.6911E+03  0.0000E+00  0.0000E+00  1.8608E+04  0.0000E+00
           6.5704E+04  0.0000E+00  0.0000E+00  0.0000E+00  9.0000E+01  9.0000E+01  9.0000E+01  0.0000E+00  2.2976E+00
 ------------------------------------------------------------------------------------------------------------------------
      650  3.0913E+03  3.3270E+02 -8.0754E+02 -2.1572E+03 -1.6899E+03  0.0000E+00  2.6496E+03  3.9001E+02  0.0000E+00
 650.000f  5.3270E+03  0.0000E+00 -6.3706E+02 -1.9646E+04  1.7034E+03  0.0000E+00  0.0000E+00  1.7305E+04  0.0000E+00
  54.823s  6.5704E+04  0.0000E+00  0.0000E+00  0.0000E+00  9.0000E+01  9.0000E+01  9.0000E+01  0.0000E+00  2.6938E+00

  rolling  3.0916E+03  3.2670E+02 -7.8146E+02 -2.1297E+03 -1.6907E+03  0.0000E+00  2.6495E+03  3.8944E+02  0.0000E+00
 averages  4.9242E+03  0.0000E+00  3.2946E+02 -1.9955E+04  1.6927E+03  0.0000E+00  0.0000E+00  1.8592E+04  0.0000E+00
           6.5704E+04  0.0000E+00  0.0000E+00  0.0000E+00  9.0000E+01  9.0000E+01  9.0000E+01  0.0000E+00  2.3130E+00
 ------------------------------------------------------------------------------------------------------------------------
      660  3.0912E+03  3.3180E+02 -8.1809E+02 -2.1373E+03 -1.6925E+03  0.0000E+00  2.6224E+03  3.8939E+02  0.0000E+00
 660.000f  4.6041E+03  0.0000E+00  1.4520E+03 -1.9915E+04  1.7127E+03  0.0000E+00  0.0000E+00  1.9655E+04  0.0000E+00
  55.690s  6.5704E+04  0.0000E+00  0.0000E+00  0.0000E+00  9.0000E+01  9.0000E+01  9.0000E+01  0.0000E+00  1.9604E+00

  rolling  3.0917E+03  3.2749E+02 -7.7450E+02 -2.1316E+03 -1.6904E+03  0.0000E+00  2.6576E+03  3.8998E+02  0.0000E+00
 averages  4.9443E+03  0.0000E+00  3.3228E+02 -1.9939E+04  1.6949E+03  0.0000E+00  0.0000E+00  1.8576E+04  0.0000E+00
           6.5704E+04  0.0000E+00  0.0000E+00  0.0000E+00  9.0000E+01  9.0000E+01  9.0000E+01  0.0000E+00  2.3179E+00
 ------------------------------------------------------------------------------------------------------------------------
      670  3.0901E+03  3.2984E+02 -8.2532E+02 -2.1152E+03 -1.6944E+03  0.0000E+00  2.5963E+03  3.8800E+02  0.0000E+00
 670.000f  5.3012E+03  0.0000E+00 -7.6560E+02 -2.0231E+04  1.7185E+03  0.0000E+00  0.0000E+00  1.7747E+04  0.0000E+00
[...]
    6.9750  8.597689E-01  1.492000E+00
    7.0250  2.542721E+00  1.504000E+00
    7.0750  8.356363E-01  1.508000E+00
    7.1250  2.471848E+00  1.520000E+00
    7.1750  4.875034E+00  1.544000E+00
    7.2250  8.012989E-01  1.548000E+00
    7.2750  7.903224E-01  1.552000E+00
    7.3250  1.091398E+01  1.608000E+00
    7.3750  6.152282E+00  1.640000E+00
    7.4250  6.828416E+00  1.676000E+00
    7.4750  2.994387E+00  1.692000E+00
    7.5250  2.216045E+00  1.704000E+00
    7.5750  3.644812E+00  1.724000E+00
    7.6250  4.316602E+00  1.748000E+00
    7.6750  4.260543E+00  1.772000E+00
    7.7250  7.009281E-01  1.776000E+00
    7.7750  2.767768E+00  1.792000E+00
    7.8250  7.514403E+00  1.836000E+00
    7.8750  2.023442E+00  1.848000E+00
    7.9250  1.331993E+00  1.856000E+00
    7.9750  6.576717E-01  1.860000E+00
    8.0250  2.598008E+00  1.876000E+00
    8.0750  1.282967E+00  1.884000E+00
    8.1250  3.801676E+00  1.908000E+00
    8.1750  1.877657E+00  1.920000E+00
    8.2250  6.182994E-01  1.924000E+00
    8.2750  6.108501E-01  1.928000E+00
    8.3250  3.017673E+00  1.948000E+00
    8.3750  0.000000E+00  1.948000E+00
    8.4250  5.892925E-01  1.952000E+00
    8.4750  5.823597E-01  1.956000E+00
    8.5250  1.151097E+00  1.964000E+00
    8.5750  0.000000E+00  1.964000E+00
    8.6250  5.622799E-01  1.968000E+00
    8.6750  5.558170E-01  1.972000E+00
    8.7250  0.000000E+00  1.972000E+00
    8.7750  1.086442E+00  1.980000E+00
    8.8250  0.000000E+00  1.980000E+00
    8.8750  1.062097E+00  1.988000E+00
    8.9250  1.575345E+00  2.000000E+00
    8.9750  5.192804E-01  2.004000E+00
    9.0250  1.027085E+00  2.012000E+00
    9.0750  1.523698E+00  2.024000E+00
    9.1250  2.511743E+00  2.044000E+00
    9.1750  1.987553E+00  2.060000E+00
    9.2250  2.949100E+00  2.084000E+00
    9.2750  3.889852E+00  2.116000E+00
    9.3250  2.405156E+00  2.136000E+00
    9.3750  4.759139E+00  2.176000E+00
    9.4250  9.417557E-01  2.184000E+00
    9.4750  6.522898E+00  2.240000E+00
    9.5250  6.454596E+00  2.296000E+00
    9.5750  3.649921E+00  2.328000E+00
    9.6250  2.257561E+00  2.348000E+00
    9.6750  2.681145E+00  2.372000E+00
    9.7250  1.326823E+00  2.384000E+00
    9.7750  3.939853E+00  2.420000E+00
    9.8250  1.299952E+00  2.432000E+00
    9.8750  2.573642E+00  2.456000E+00
    9.9250  2.547776E+00  2.480000E+00
    9.9750  4.624214E+00  2.524000E+00
   10.0250  2.497201E+00  2.548000E+00
   10.0750  5.357033E+00  2.600000E+00
   10.1250  5.304255E+00  2.652000E+00
   10.1750  4.444214E+00  2.696000E+00
   10.2250  6.401245E+00  2.760000E+00
   10.2750  3.169549E+00  2.792000E+00
   10.3250  3.531291E+00  2.828000E+00
   10.3750  7.771859E-01  2.836000E+00
   10.4250  1.539498E+00  2.852000E+00
   10.4750  2.287254E+00  2.876000E+00
   10.5250  3.020765E+00  2.908000E+00
   10.5750  5.236468E+00  2.964000E+00
   10.6250  6.298864E+00  3.032000E+00
   10.6750  4.771762E+00  3.084000E+00
   10.7250  5.454662E+00  3.144000E+00
   10.7750  3.963048E+00  3.188000E+00
   10.8250  5.711306E+00  3.252000E+00
   10.8750  4.244181E+00  3.300000E+00
   10.9250  4.906326E+00  3.356000E+00
   10.9750  4.514457E+00  3.408000E+00
   11.0250  3.785356E+00  3.452000E+00
   11.0750  6.479439E+00  3.528000E+00
   11.1250  6.083363E+00  3.600000E+00
   11.1750  6.029048E+00  3.672000E+00
   11.2250  3.651668E+00  3.716000E+00
   11.2750  4.606448E+00  3.772000E+00
   11.3250  3.913597E+00  3.820000E+00
   11.3750  5.172357E+00  3.884000E+00
   11.4250  1.922694E+00  3.908000E+00
   11.4750  1.588312E+00  3.928000E+00
   11.5250  2.519297E+00  3.960000E+00
   11.5750  1.560987E+00  3.980000E+00
   11.6250  1.547588E+00  4.000000E+00
   11.6750  1.841233E+00  4.024000E+00
   11.7250  3.042605E+00  4.064000E+00
   11.7750  2.413457E+00  4.096000E+00
   11.8250  2.991363E+00  4.136000E+00
   11.8750  2.966225E+00  4.176000E+00
   11.9250  5.000386E+00  4.244000E+00
   11.9750  3.208581E+00  4.288000E+00
   12.0250  1.735611E+00  4.312000E+00
   12.0750  1.147512E+00  4.328000E+00
   12.1250  1.707101E+00  4.352000E+00
   12.1750  1.410923E+00  4.372000E+00
   12.2250  8.396435E-01  4.384000E+00
   12.2750  1.388029E+00  4.404000E+00
   12.3250  1.376789E+00  4.424000E+00
   12.3750  8.194119E-01  4.436000E+00
   12.4250  8.128303E-01  4.448000E+00
   12.4750  1.612655E+00  4.472000E+00
   12.5250  2.133074E+00  4.504000E+00
   12.5750  2.909699E+00  4.548000E+00
   12.6250  2.624271E+00  4.588000E+00
   12.6750  7.810822E-01  4.600000E+00
   12.7250  7.749561E-01  4.612000E+00
   12.7750  2.563006E-01  4.616000E+00
   12.8250  2.543061E-01  4.620000E+00
   12.8750  1.514008E+00  4.644000E+00
   12.9250  7.511585E-01  4.656000E+00
   12.9750  7.453804E-01  4.668000E+00

g(r)  :S*      O*      

        r      g(r)         n(r)

    2.9750  0.000000E+00  0.000000E+00
    3.0250  0.000000E+00  0.000000E+00
    3.0750  4.423563E+00  4.000000E-03
    3.1250  8.566288E+00  1.200000E-02
    3.1750  4.149307E+00  1.600000E-02
    3.2250  4.021646E+00  2.000000E-02
    3.2750  0.000000E+00  2.000000E-02
    3.3250  1.891692E+00  2.200000E-02
    3.3750  0.000000E+00  2.200000E-02
    3.4250  1.782843E+00  2.400000E-02
    3.4750  0.000000E+00  2.400000E-02
    3.5250  0.000000E+00  2.400000E-02
    3.5750  3.272750E+00  2.800000E-02
    3.6250  1.591546E+00  3.000000E-02
    3.6750  3.097067E+00  3.400000E-02
    3.7250  4.521725E+00  4.000000E-02
    3.7750  2.935160E+00  4.400000E-02
    3.8250  2.858926E+00  4.800000E-02
    3.8750  4.178437E+00  5.400000E-02
    3.9250  8.145318E+00  6.600000E-02
    3.9750  7.941696E+00  7.800000E-02
    4.0250  1.420029E+01  1.000000E-01
    4.0750  1.007561E+01  1.160000E-01
    4.1250  7.374626E+00  1.280000E-01
    4.1750  1.319826E+01  1.500000E-01
    4.2250  1.757417E+01  1.800000E-01
    4.2750  8.010559E+00  1.940000E-01
    4.3250  4.472238E+00  2.020000E-01
    4.3750  8.741202E+00  2.180000E-01
    4.4250  5.340487E+00  2.280000E-01
    4.4750  9.399265E+00  2.460000E-01
    4.5250  8.171286E+00  2.620000E-01
    4.5750  8.992863E+00  2.800000E-01
    4.6250  5.866317E+00  2.920000E-01
    4.6750  9.569178E+00  3.120000E-01
    4.7250  8.430956E+00  3.300000E-01
    4.7750  4.586288E+00  3.400000E-01
    4.8250  8.983457E+00  3.600000E-01
    4.8750  7.920114E+00  3.780000E-01
    4.9250  7.760118E+00  3.960000E-01
    4.9750  1.098489E+01  4.220000E-01
    5.0250  7.454333E+00  4.400000E-01
    5.0750  8.932213E+00  4.620000E-01
    5.1250  1.114754E+01  4.900000E-01
    5.1750  1.171411E+01  5.200000E-01
    5.2250  3.830329E+00  5.300000E-01
    5.2750  1.052257E+01  5.580000E-01
    5.3250  9.588329E+00  5.840000E-01
    5.3750  1.520202E+01  6.260000E-01
    5.4250  8.527479E+00  6.500000E-01
    5.4750  6.977032E+00  6.700000E-01
    5.5250  7.536456E+00  6.920000E-01
    5.5750  6.728982E+00  7.120000E-01
    5.6250  6.609888E+00  7.320000E-01
    5.6750  3.896357E+00  7.440000E-01
    5.7250  6.380993E+00  7.640000E-01
    5.7750  6.270978E+00  7.840000E-01
    5.8250  6.163785E+00  8.040000E-01
    5.8750  7.877111E+00  8.300000E-01
    5.9250  4.765985E+00  8.460000E-01
    5.9750  2.343277E+00  8.540000E-01
    6.0250  2.880683E+00  8.640000E-01
    6.0750  7.366994E+00  8.900000E-01
    6.1250  6.132253E+00  9.120000E-01
    6.1750  1.426064E+01  9.640000E-01
    6.2250  7.555948E+00  9.920000E-01
    6.2750  7.967159E+00  1.022000E+00
    6.3250  9.932813E+00  1.060000E+00
    6.3750  1.286528E+01  1.110000E+00
    6.4250  8.106129E+00  1.142000E+00
    6.4750  7.981422E+00  1.174000E+00
    6.5250  6.877124E+00  1.202000E+00
    6.5750  7.256708E+00  1.232000E+00
    6.6250  1.000662E+01  1.274000E+00
    6.6750  7.510302E+00  1.306000E+00
    6.7250  9.711241E+00  1.348000E+00
    6.7750  8.201512E+00  1.384000E+00
    6.8250  1.032672E+01  1.430000E+00
    6.8750  7.079697E+00  1.462000E+00
    6.9250  6.977832E+00  1.494000E+00
    6.9750  2.579307E+00  1.506000E+00
    7.0250  3.814082E+00  1.524000E+00
    7.0750  3.342545E+00  1.540000E+00
    7.1250  2.883822E+00  1.554000E+00
    7.1750  5.281287E+00  1.580000E+00
    7.2250  5.609092E+00  1.608000E+00
    7.2750  4.741934E+00  1.632000E+00
    7.3250  3.897849E+00  1.652000E+00
    7.3750  2.691624E+00  1.666000E+00
    7.4250  4.172921E+00  1.688000E+00
    7.4750  5.240178E+00  1.716000E+00
    7.5250  2.216045E+00  1.728000E+00
    7.5750  3.644812E+00  1.748000E+00
    7.6250  2.877735E+00  1.764000E+00
    7.6750  3.195407E+00  1.782000E+00
    7.7250  3.154177E+00  1.800000E+00
    7.7750  2.421797E+00  1.814000E+00
    7.8250  4.098766E+00  1.838000E+00
    7.8750  2.360682E+00  1.852000E+00
    7.9250  2.330988E+00  1.866000E+00
    7.9750  2.301851E+00  1.880000E+00
    8.0250  3.247510E+00  1.900000E+00
    8.0750  1.603709E+00  1.910000E+00
    8.1250  2.534451E+00  1.926000E+00
    8.1750  2.816486E+00  1.944000E+00
    8.2250  1.545749E+00  1.954000E+00
    8.2750  1.221700E+00  1.962000E+00
    8.3250  1.207069E+00  1.970000E+00
    8.3750  5.963498E-01  1.974000E+00
    8.4250  2.357170E+00  1.990000E+00
    8.4750  1.455899E+00  2.000000E+00
    8.5250  3.165517E+00  2.022000E+00
    8.5750  1.990997E+00  2.036000E+00
    8.6250  1.686840E+00  2.048000E+00
    8.6750  2.501176E+00  2.066000E+00
    8.7250  1.923127E+00  2.080000E+00
    8.7750  2.716105E+00  2.100000E+00
    8.8250  1.611249E+00  2.112000E+00
    8.8750  3.186291E+00  2.136000E+00
    8.9250  3.413247E+00  2.162000E+00
    8.9750  2.856042E+00  2.184000E+00
    9.0250  2.054170E+00  2.200000E+00
    9.0750  5.078993E-01  2.204000E+00
    9.1250  1.255871E+00  2.214000E+00
    9.1750  9.937766E-01  2.222000E+00
    9.2250  2.211825E+00  2.240000E+00
    9.2750  1.458695E+00  2.252000E+00
    9.3250  1.443094E+00  2.264000E+00
    9.3750  3.807311E+00  2.296000E+00
    9.4250  2.825267E+00  2.320000E+00
    9.4750  3.960331E+00  2.354000E+00
    9.5250  4.610426E+00  2.394000E+00
    9.5750  4.106161E+00  2.430000E+00
    9.6250  4.966635E+00  2.474000E+00
    9.6750  2.457716E+00  2.496000E+00
    9.7250  4.643881E+00  2.538000E+00
    9.7750  3.283211E+00  2.568000E+00
    9.8250  4.549831E+00  2.610000E+00
    9.8750  4.074933E+00  2.648000E+00
    9.9250  5.944811E+00  2.704000E+00
    9.9750  5.044597E+00  2.752000E+00
   10.0250  4.370103E+00  2.794000E+00
   10.0750  4.532874E+00  2.838000E+00
   10.1250  4.896235E+00  2.886000E+00
   10.1750  2.828136E+00  2.914000E+00
   10.2250  2.600506E+00  2.940000E+00
   10.2750  2.773355E+00  2.968000E+00
   10.3250  4.119840E+00  3.010000E+00
   10.3750  2.137261E+00  3.032000E+00
   10.4250  4.041181E+00  3.074000E+00
   10.4750  3.621485E+00  3.112000E+00
   10.5250  2.831967E+00  3.142000E+00
   10.5750  5.049451E+00  3.196000E+00
   10.6250  2.964171E+00  3.228000E+00
   10.6750  2.018822E+00  3.250000E+00
   10.7250  2.000043E+00  3.272000E+00
   10.7750  2.521940E+00  3.300000E+00
   10.8250  1.963261E+00  3.322000E+00
   10.8750  3.359977E+00  3.360000E+00
   10.9250  2.628389E+00  3.390000E+00
   10.9750  3.299026E+00  3.428000E+00
   11.0250  3.613294E+00  3.470000E+00
   11.0750  2.728185E+00  3.502000E+00
   11.1250  2.027788E+00  3.526000E+00
   11.1750  2.009683E+00  3.550000E+00
   11.2250  1.493864E+00  3.568000E+00
   11.2750  2.138708E+00  3.594000E+00
   11.3250  1.141466E+00  3.608000E+00
   11.3750  2.909451E+00  3.644000E+00
   11.4250  3.204490E+00  3.684000E+00
   11.4750  3.017794E+00  3.722000E+00
   11.5250  4.093858E+00  3.774000E+00
   11.5750  3.590270E+00  3.820000E+00
   11.6250  4.023729E+00  3.872000E+00
   11.6750  3.529030E+00  3.918000E+00
   11.7250  2.434084E+00  3.950000E+00
   11.7750  3.318503E+00  3.994000E+00
   11.8250  2.393090E+00  4.026000E+00
   11.8750  2.669603E+00  4.062000E+00
   11.9250  2.647263E+00  4.098000E+00
   11.9750  2.187669E+00  4.128000E+00
   12.0250  2.603417E+00  4.164000E+00
   12.0750  1.290951E+00  4.182000E+00
   12.1250  1.707101E+00  4.206000E+00
   12.1750  1.410923E+00  4.226000E+00
   12.2250  9.795840E-01  4.240000E+00
   12.2750  2.498451E+00  4.276000E+00
   12.3250  2.340542E+00  4.310000E+00
   12.3750  2.048530E+00  4.340000E+00
   12.4250  1.490189E+00  4.362000E+00
   12.4750  1.747043E+00  4.388000E+00
   12.5250  7.999028E-01  4.400000E+00
   12.5750  1.454850E+00  4.422000E+00
   12.6250  9.184948E-01  4.436000E+00
   12.6750  9.112626E-01  4.450000E+00
   12.7250  2.324868E+00  4.486000E+00
   12.7750  2.178555E+00  4.520000E+00
   12.8250  1.652989E+00  4.546000E+00
   12.8750  1.514008E+00  4.570000E+00
   12.9250  8.763516E-01  4.584000E+00
   12.9750  7.453804E-01  4.596000E+00

g(r)  :O*      O*      

        r      g(r)         n(r)

    3.7250  0.000000E+00  0.000000E+00
    3.7750  0.000000E+00  0.000000E+00
    3.8250  2.858926E+00  4.000000E-03
    3.8750  0.000000E+00  4.000000E-03
    3.9250  2.715106E+00  8.000000E-03
    3.9750  0.000000E+00  8.000000E-03
    4.0250  5.163743E+00  1.600000E-02
    4.0750  7.556707E+00  2.800000E-02
    4.1250  4.916418E+00  3.600000E-02
    4.1750  9.598731E+00  5.200000E-02
    4.2250  0.000000E+00  5.200000E-02
    4.2750  6.866194E+00  6.400000E-02
    4.3250  1.118060E+01  8.400000E-02
    4.3750  8.741202E+00  1.000000E-01
    4.4250  1.708956E+01  1.320000E-01
    4.4750  1.462108E+01  1.600000E-01
    4.5250  2.655668E+01  2.120000E-01
    4.5750  1.798573E+01  2.480000E-01
    4.6250  1.759895E+01  2.840000E-01
    4.6750  2.296603E+01  3.320000E-01
    4.7250  1.311482E+01  3.600000E-01
    4.7750  7.338060E+00  3.760000E-01
    4.8250  8.983457E+00  3.960000E-01
    4.8750  1.408020E+01  4.280000E-01
    4.9250  2.241812E+01  4.800000E-01
    4.9750  1.351986E+01  5.120000E-01
    5.0250  6.626074E+00  5.280000E-01
    5.0750  1.299231E+01  5.600000E-01
    5.1250  9.555030E+00  5.840000E-01
    5.1750  2.342821E+01  6.440000E-01
    5.2250  2.298197E+01  7.040000E-01
    5.2750  9.019346E+00  7.280000E-01
    5.3250  1.475128E+01  7.680000E-01
    5.3750  1.013468E+01  7.960000E-01
    5.4250  4.263740E+00  8.080000E-01
    5.4750  6.977032E+00  8.280000E-01
    5.5250  5.481059E+00  8.440000E-01
    5.5750  4.037389E+00  8.560000E-01
    5.6250  1.321978E+01  8.960000E-01
    5.6750  5.195142E+00  9.120000E-01
    5.7250  2.552397E+00  9.200000E-01
    5.7750  3.762587E+00  9.320000E-01
    5.8250  1.232757E+00  9.360000E-01
    5.8750  2.423727E+00  9.440000E-01
    5.9250  3.574489E+00  9.560000E-01
    5.9750  3.514916E+00  9.680000E-01
    6.0250  3.456819E+00  9.800000E-01
    6.0750  2.266767E+00  9.880000E-01
    6.1250  4.459821E+00  1.004000E+00
    6.1750  4.387890E+00  1.020000E+00
    6.2250  3.238264E+00  1.032000E+00
    6.2750  3.186864E+00  1.044000E+00
    6.3250  1.045559E+00  1.048000E+00
    6.3750  5.146114E+00  1.068000E+00
    6.4250  4.053065E+00  1.084000E+00
    6.4750  4.988389E+00  1.104000E+00
    6.5250  4.912232E+00  1.124000E+00
    6.5750  4.837805E+00  1.144000E+00
    6.6250  6.671081E+00  1.172000E+00
    6.6750  1.877576E+00  1.180000E+00
    6.7250  2.774640E+00  1.192000E+00
    6.7750  3.645117E+00  1.208000E+00
    6.8250  7.183808E+00  1.240000E+00
    6.8750  3.539848E+00  1.256000E+00
    6.9250  2.616687E+00  1.268000E+00
    6.9750  3.439075E+00  1.284000E+00
    7.0250  5.933016E+00  1.312000E+00
    7.0750  8.356363E+00  1.352000E+00
    7.1250  4.943696E+00  1.376000E+00
    7.1750  2.437517E+00  1.388000E+00
    7.2250  4.006495E+00  1.408000E+00
    7.2750  1.580645E+00  1.416000E+00
    7.3250  1.013441E+01  1.468000E+00
    7.3750  6.152282E+00  1.500000E+00
    7.4250  4.552277E+00  1.524000E+00
    7.4750  8.983162E+00  1.572000E+00
    7.5250  5.909454E+00  1.604000E+00
    7.5750  5.102737E+00  1.632000E+00
    7.6250  5.755469E+00  1.664000E+00
    7.6750  8.521086E+00  1.712000E+00
    7.7250  5.607425E+00  1.744000E+00
    7.7750  4.151652E+00  1.768000E+00
    7.8250  4.781893E+00  1.796000E+00
    7.8750  1.348961E+00  1.804000E+00
    7.9250  3.995980E+00  1.828000E+00
    7.9750  6.576717E-01  1.832000E+00
    8.0250  3.897012E+00  1.856000E+00
    8.0750  5.131869E+00  1.888000E+00
    8.1250  8.236965E+00  1.940000E+00
    8.1750  2.503543E+00  1.956000E+00
    8.2250  2.473198E+00  1.972000E+00
    8.2750  1.832550E+00  1.984000E+00
    8.3250  1.810604E+00  1.996000E+00
    8.3750  5.963498E-01  2.000000E+00
    8.4250  5.892925E+00  2.040000E+00
    8.4750  5.241237E+00  2.076000E+00
    8.5250  7.482131E+00  2.128000E+00
    8.5750  9.670556E+00  2.196000E+00
    8.6250  3.373679E+00  2.220000E+00
    8.6750  4.446536E+00  2.252000E+00
    8.7250  2.197859E+00  2.268000E+00
    8.7750  1.629663E+00  2.280000E+00
    8.8250  1.611249E+00  2.292000E+00
    8.8750  3.717339E+00  2.320000E+00
    8.9250  2.100460E+00  2.336000E+00
    8.9750  2.596402E+00  2.356000E+00
    9.0250  5.135426E-01  2.360000E+00
    9.0750  1.015799E+00  2.368000E+00
    9.1250  2.511743E+00  2.388000E+00
    9.1750  2.484442E+00  2.408000E+00
    9.2250  2.457583E+00  2.428000E+00
    9.2750  6.807241E+00  2.484000E+00
    9.3250  4.810312E+00  2.524000E+00
    9.3750  2.855484E+00  2.548000E+00
    9.4250  3.296145E+00  2.576000E+00
    9.4750  1.397764E+00  2.588000E+00
    9.5250  2.766255E+00  2.612000E+00
    9.5750  4.562401E-01  2.616000E+00
    9.6250  9.030245E-01  2.624000E+00
    9.6750  8.937151E-01  2.632000E+00
    9.7250  1.326823E+00  2.644000E+00
    9.7750  2.188807E+00  2.664000E+00
    9.8250  2.166586E+00  2.684000E+00
    9.8750  8.578806E-01  2.692000E+00
    9.9250  1.698518E+00  2.708000E+00
    9.9750  4.624214E+00  2.752000E+00
   10.0250  3.329602E+00  2.784000E+00
   10.0750  3.708715E+00  2.820000E+00
   10.1250  6.120294E+00  2.880000E+00
   10.1750  3.636175E+00  2.916000E+00
   10.2250  4.400856E+00  2.960000E+00
   10.2750  2.377162E+00  2.984000E+00
   10.3250  3.138926E+00  3.016000E+00
   10.3750  4.663116E+00  3.064000E+00
   10.4250  5.388242E+00  3.120000E+00
   10.4750  4.955717E+00  3.172000E+00
   10.5250  2.643169E+00  3.200000E+00
   10.5750  3.740334E+00  3.240000E+00
   10.6250  4.446257E+00  3.288000E+00
   10.6750  3.670586E+00  3.328000E+00
   10.7250  5.091018E+00  3.384000E+00
   10.7750  3.963048E+00  3.428000E+00
   10.8250  2.498696E+00  3.456000E+00
   10.8750  2.122091E+00  3.480000E+00
   10.9250  7.009037E-01  3.488000E+00
   10.9750  1.041798E+00  3.500000E+00
   11.0250  1.720616E+00  3.520000E+00
   11.0750  1.705115E+00  3.540000E+00
   11.1250  2.365752E+00  3.568000E+00
   11.1750  1.004841E+00  3.580000E+00
   11.2250  1.327879E+00  3.596000E+00
   11.2750  2.303224E+00  3.624000E+00
   11.3250  6.522662E-01  3.632000E+00
   11.3750  1.616361E+00  3.652000E+00
   11.4250  3.204490E-01  3.656000E+00
   11.4750  1.905975E+00  3.680000E+00
   11.5250  2.519297E+00  3.712000E+00
   11.5750  1.560987E+00  3.732000E+00
   11.6250  1.238071E+00  3.748000E+00
   11.6750  2.761850E+00  3.784000E+00
   11.7250  1.217042E+00  3.800000E+00
   11.7750  1.206728E+00  3.816000E+00
   11.8250  2.991363E+00  3.856000E+00
   11.8750  1.779735E+00  3.880000E+00
   11.9250  2.941403E+00  3.920000E+00
   11.9750  2.625203E+00  3.956000E+00
   12.0250  1.157074E+00  3.972000E+00
   12.0750  1.721267E+00  3.996000E+00
   12.1250  1.422584E+00  4.016000E+00
   12.1750  1.693108E+00  4.040000E+00
   12.2250  2.239049E+00  4.072000E+00
   12.2750  2.220846E+00  4.104000E+00
   12.3250  1.376789E+00  4.124000E+00
   12.3750  2.185098E+00  4.156000E+00
   12.4250  2.167547E+00  4.188000E+00
   12.4750  1.343879E+00  4.208000E+00
   12.5250  1.866440E+00  4.236000E+00
   12.5750  2.645181E+00  4.276000E+00
   12.6250  1.574562E+00  4.300000E+00
   12.6750  7.810822E-01  4.312000E+00
   12.7250  7.749561E-01  4.324000E+00
   12.7750  2.306705E+00  4.360000E+00
   12.8250  2.543061E+00  4.400000E+00
   12.8750  2.018678E+00  4.432000E+00
   12.9250  2.253476E+00  4.468000E+00
   12.9750  2.981522E+00  4.516000E+00

 time elapsed since job start =          83.560 seconds

