
                    DL_POLY Classic 1.2

                              Running on    8 nodes


 ************************************************************************************************************************
 ************************************************************************************************************************
 ************************************************************************************************************************
 ***************     DL_POLY TEST CASE 31: Linear molecule fluid                                          ***************
 ************************************************************************************************************************
 ************************************************************************************************************************
 ************************************************************************************************************************


 SIMULATION CONTROL PARAMETERS


 leapfrog verlet integration selected

 simulation temperature           2.0000E+02

 simulation pressure (katm)       1.0000E-01

 Nose-Hoover  (Melchionna) isotropic N-P-T 
 thermostat relaxation time       1.0000E-01
 barostat relaxation time         1.0000E+00

 selected number of timesteps         5000

 equilibration period                  100

 multiple timestep interval              1

 data printing interval                 10

 data stacking interval                100

 statistics file interval               10

 simulation timestep              2.0000E-03

 force capping :                  1.0000E+03 kT/A

 real space cut off               8.0000E+00

 border width of Verlet shell     5.0000E-01


 electrostatic potential terms off

 link cells option deactivated

 user allocated job time (h)      1.0000

 job closure time        (s)     100.000


SYSTEM SPECIFICATION

 energy units=kjoule/mol 


 number of molecular types               1

 molecular species type                  1


 name of species:             Linear Chain                            

 number of molecules                   675

 number of atoms/sites                   6


 atomic characteristics:

                      site     name          mass        charge    repeat    freeze

                         1     C_3         15.00000     0.00000         1         0
                         2     C_1         12.00000     0.00000         1         0
                         3     C_1         12.00000     0.00000         1         0
                         4     C_1         12.00000     0.00000         1         0
                         5     C_1         12.00000     0.00000         1         0
                         6     C_3         15.00000     0.00000         1         0

 number of rigid units                   1

 rigid body details:

                           unit   indices

                              1         1         2         3         4         5         6


 number of specified pair potentials         3


                atom 1  atom 2      key                              parameters


                C_3     C_3       lj       3.97500E-01  3.47300E+00
                C_3     C_1       lj       3.97500E-01  3.47300E+00
                C_1     C_1       lj       3.97500E-01  3.47300E+00

 configuration file name: 

          DL_POLY TEST CASE 31: Linear molecule fluid                                     


 selected image convention               3


 simulation cell vectors


                        47.133025    0.000000    0.000000
                         0.000000   47.133025    0.000000
                         0.000000    0.000000   47.133025


 system volume            104707.056727    


             summary of rigid body set up

 group of type          1
             total mass           78.0000000000
             rot. inertia        485.1000025103      485.1000025103        0.0000000000

             site        a coord        b coord        c coord
                1    0.00000E+00    0.00000E+00    3.50000E+00
                2    0.00000E+00    0.00000E+00    2.10000E+00
                3    0.00000E+00    2.30149E-08    7.00000E-01
                4    0.00000E+00   -3.88542E-08   -7.00000E-01
                5    0.00000E+00   -3.98215E-08   -2.10000E+00
                6    0.00000E+00    3.61243E-08   -3.50000E+00


 total degrees of freedom                      3372.
 rotational degrees of freedom                 1350.
 shell pseudo degrees of freedom                  0.


 sample of starting configuration

      i       x(i)        y(i)        z(i)       vx(i)       vy(i)       vz(i)       fx(i)       fy(i)       fz(i)


      1 -2.1480E+00 -6.3083E+00 -1.1908E+01  4.2200E+00 -1.3592E+00 -1.4444E+00  3.5102E+01  2.1106E+02 -4.6831E+01
    204 -2.0525E+01  1.9103E+01  2.4268E+00 -1.6352E+00  3.0569E+00  2.3348E+00 -2.1561E+03 -5.9954E+01 -1.2429E+03
    407 -4.7700E+00  1.9166E+01 -1.7765E+01 -9.9173E-01 -1.0048E-01 -1.1204E+00 -7.5708E+01 -5.6235E+01 -1.4563E+02
    610  1.3822E+01  6.6107E+00 -1.3339E+01  1.0966E+00 -2.6856E-01  1.4318E+00 -2.0079E+01  5.5667E+02 -7.9837E+01
    813 -6.0819E+00  1.4691E+01 -1.4187E+01 -1.1954E+00 -1.2043E+00 -1.1957E-02 -4.7686E+02 -2.0725E+02 -7.5684E+01
   1016 -1.9828E+01 -9.3324E+00 -1.7403E+01 -3.1578E+00 -7.5999E-02  2.9568E-01  5.6615E+01 -4.8439E+01  5.3876E+01
   1219  4.4173E+00  2.1825E-01  2.2179E+01 -2.2682E+00  1.4802E+00 -9.6626E-01  5.4999E+02 -3.6776E+02 -5.1984E+02
   1422  1.3194E+01  8.5333E+00  5.4073E+00 -7.1783E-02  1.5365E+00 -3.2941E-01  1.2112E+02 -3.1379E+02  6.6688E+01
   1625  1.0422E+01 -2.1866E+01 -4.3347E+00 -1.1061E+00  6.0004E+00 -2.6382E+00  1.9652E+01  4.7991E+01 -3.5990E+01
   1828  2.2347E+01  1.6798E+00 -1.6744E+01 -4.2296E-01 -9.2767E-01 -1.7935E-02 -2.8173E+01 -3.9142E+01 -5.3105E+01
   2031  9.3709E+00 -7.9623E-01 -5.1755E+00 -6.3515E-01  2.1562E-02  3.0988E-01 -1.8207E+01 -1.0282E+02  7.7653E+01
   2234  1.7941E+01  1.9623E+01  5.2345E+00  4.0738E+00  7.8850E-01  2.2305E+00  8.5922E+01 -2.3674E+02  1.5375E+02
   2437  8.8786E+00  1.8715E+01  4.1686E+00 -2.8577E-01 -1.1965E+00 -1.1878E+00 -6.3253E+00  4.3632E+01 -1.5484E+02
   2640  1.9218E+01 -1.5351E+01  1.5881E+01  9.1803E-01 -3.8726E+00 -2.8540E+00  1.0797E+02  1.7855E+02 -1.0054E+03
   2843 -1.8977E+00  1.7128E+01 -3.7733E+00 -3.6138E+00  1.9912E+00  1.3104E+00  2.1746E+02 -2.4945E+02 -2.1663E+02
   3046 -9.1435E+00 -1.5801E+01  1.6220E+01 -1.0882E-01  1.9455E+00  2.4901E-01  1.1540E+02  1.5241E+01 -1.7797E+01
   3249 -2.0207E+01  1.3486E+01  8.8416E+00  1.1042E-01  7.4897E-01  5.9926E-01  1.9921E+02  8.4897E+01  4.7864E+02
   3452 -8.7975E+00  2.1867E+01  2.2014E+01  9.3862E-01 -1.2664E+00 -1.5006E+00 -3.8423E+02 -4.3599E+01  9.4564E+01
   3655 -2.2667E+01 -1.3735E+01  1.7064E+01  9.3721E-01  4.8179E-01  1.0745E+00 -9.9186E+00  2.8173E+02  3.5731E+01
   3858 -4.2702E+00  7.4014E-01  2.2122E+01 -1.1264E+00  1.6601E+00  6.2781E+00 -5.2751E+01 -1.8678E+02  2.2208E+02


long range correction for: vdw energy    -0.178393E+04
                         : vdw pressure  -0.557177E+00

 time elapsed since job start =           1.076 seconds

 ------------------------------------------------------------------------------------------------------------------------

     step     eng_tot    temp_tot     eng_cfg     eng_vdw     eng_cou     eng_bnd     eng_ang     eng_dih     eng_tet
 time          eng_pv    temp_rot     vir_cfg     vir_vdw     vir_cou     vir_bnd     vir_ang     vir_con     vir_tet
 cpu time      volume    temp_shl     eng_shl     vir_shl       alpha        beta       gamma     vir_pmf       press

 ------------------------------------------------------------------------------------------------------------------------
        1 -1.1811E+04  2.0002E+02 -1.5254E+04 -1.5254E+04  0.0000E+00  0.0000E+00  0.0000E+00  0.0000E+00  0.0000E+00
   2.000f -1.2424E+04  2.0137E+02  3.2689E+03  1.7400E+04  0.0000E+00  0.0000E+00  0.0000E+00  0.0000E+00  0.0000E+00
   1.153s  1.0471E+05  0.0000E+00  0.0000E+00  0.0000E+00  9.0000E+01  9.0000E+01  9.0000E+01  0.0000E+00  4.1049E-03

  rolling -1.1811E+04  2.0002E+02 -1.5254E+04 -1.5254E+04  0.0000E+00  0.0000E+00  0.0000E+00  0.0000E+00  0.0000E+00
 averages -1.2424E+04  2.0137E+02  3.2689E+03  1.7400E+04  0.0000E+00  0.0000E+00  0.0000E+00  0.0000E+00  0.0000E+00
           1.0471E+05  0.0000E+00  0.0000E+00  0.0000E+00  9.0000E+01  9.0000E+01  9.0000E+01  0.0000E+00  4.1049E-03
 ------------------------------------------------------------------------------------------------------------------------
       10 -1.1810E+04  2.0066E+02 -1.5262E+04 -1.5262E+04  0.0000E+00  0.0000E+00  0.0000E+00  0.0000E+00  0.0000E+00
  20.000f -1.2473E+04  2.0327E+02  3.4164E+03  1.7399E+04  0.0000E+00  0.0000E+00  0.0000E+00  0.0000E+00  0.0000E+00
   1.272s  1.0468E+05  0.0000E+00  0.0000E+00  0.0000E+00  9.0000E+01  9.0000E+01  9.0000E+01  0.0000E+00 -3.7719E-03

  rolling -1.1810E+04  2.0035E+02 -1.5258E+04 -1.5258E+04  0.0000E+00  0.0000E+00  0.0000E+00  0.0000E+00  0.0000E+00
 averages -1.2452E+04  2.0237E+02  3.3544E+03  1.7410E+04  0.0000E+00  0.0000E+00  0.0000E+00  0.0000E+00  0.0000E+00
           1.0470E+05  0.0000E+00  0.0000E+00  0.0000E+00  9.0000E+01  9.0000E+01  9.0000E+01  0.0000E+00 -4.5609E-04
 ------------------------------------------------------------------------------------------------------------------------
       20 -1.1810E+04  2.0117E+02 -1.5270E+04 -1.5270E+04  0.0000E+00  0.0000E+00  0.0000E+00  0.0000E+00  0.0000E+00
  40.000f -1.2452E+04  2.0454E+02  3.3509E+03  1.7219E+04  0.0000E+00  0.0000E+00  0.0000E+00  0.0000E+00  0.0000E+00
   1.454s  1.0462E+05  0.0000E+00  0.0000E+00  0.0000E+00  9.0000E+01  9.0000E+01  9.0000E+01  0.0000E+00 -3.5082E-04

  rolling -1.1810E+04  2.0066E+02 -1.5262E+04 -1.5262E+04  0.0000E+00  0.0000E+00  0.0000E+00  0.0000E+00  0.0000E+00
 averages -1.2462E+04  2.0322E+02  3.3815E+03  1.7364E+04  0.0000E+00  0.0000E+00  0.0000E+00  0.0000E+00  0.0000E+00
           1.0467E+05  0.0000E+00  0.0000E+00  0.0000E+00  9.0000E+01  9.0000E+01  9.0000E+01  0.0000E+00 -1.9130E-03
 ------------------------------------------------------------------------------------------------------------------------
       30 -1.1811E+04  2.0091E+02 -1.5269E+04 -1.5269E+04  0.0000E+00  0.0000E+00  0.0000E+00  0.0000E+00  0.0000E+00
  60.000f -1.2266E+04  2.0445E+02  2.7776E+03  1.6759E+04  0.0000E+00  0.0000E+00  0.0000E+00  0.0000E+00  0.0000E+00
   1.639s  1.0451E+05  0.0000E+00  0.0000E+00  0.0000E+00  9.0000E+01  9.0000E+01  9.0000E+01  0.0000E+00  2.9291E-02

  rolling -1.1810E+04  2.0081E+02 -1.5265E+04 -1.5265E+04  0.0000E+00  0.0000E+00  0.0000E+00  0.0000E+00  0.0000E+00
 averages -1.2430E+04  2.0368E+02  3.2839E+03  1.7241E+04  0.0000E+00  0.0000E+00  0.0000E+00  0.0000E+00  0.0000E+00
           1.0464E+05  0.0000E+00  0.0000E+00  0.0000E+00  9.0000E+01  9.0000E+01  9.0000E+01  0.0000E+00  3.1320E-03
 ------------------------------------------------------------------------------------------------------------------------
       40 -1.1811E+04  1.9977E+02 -1.5255E+04 -1.5255E+04  0.0000E+00  0.0000E+00  0.0000E+00  0.0000E+00  0.0000E+00
  80.000f -1.1900E+04  2.0341E+02  1.6529E+03  1.6028E+04  0.0000E+00  0.0000E+00  0.0000E+00  0.0000E+00  0.0000E+00
   1.763s  1.0437E+05  0.0000E+00  0.0000E+00  0.0000E+00  9.0000E+01  9.0000E+01  9.0000E+01  0.0000E+00  8.7140E-02

  rolling -1.1810E+04  2.0069E+02 -1.5264E+04 -1.5264E+04  0.0000E+00  0.0000E+00  0.0000E+00  0.0000E+00  0.0000E+00
 averages -1.2341E+04  2.0374E+02  3.0109E+03  1.7024E+04  0.0000E+00  0.0000E+00  0.0000E+00  0.0000E+00  0.0000E+00
           1.0459E+05  0.0000E+00  0.0000E+00  0.0000E+00  9.0000E+01  9.0000E+01  9.0000E+01  0.0000E+00  1.7206E-02
 ------------------------------------------------------------------------------------------------------------------------
       50 -1.1812E+04  1.9821E+02 -1.5236E+04 -1.5236E+04  0.0000E+00  0.0000E+00  0.0000E+00  0.0000E+00  0.0000E+00
 100.000f -1.1461E+04  2.0184E+02  3.0290E+02  1.5191E+04  0.0000E+00  0.0000E+00  0.0000E+00  0.0000E+00  0.0000E+00
   1.945s  1.0423E+05  0.0000E+00  0.0000E+00  0.0000E+00  9.0000E+01  9.0000E+01  9.0000E+01  0.0000E+00  1.5663E-01

  rolling -1.1811E+04  2.0034E+02 -1.5261E+04 -1.5261E+04  0.0000E+00  0.0000E+00  0.0000E+00  0.0000E+00  0.0000E+00
 averages -1.2205E+04  2.0351E+02  2.5918E+03  1.6733E+04  0.0000E+00  0.0000E+00  0.0000E+00  0.0000E+00  0.0000E+00
           1.0453E+05  0.0000E+00  0.0000E+00  0.0000E+00  9.0000E+01  9.0000E+01  9.0000E+01  0.0000E+00  3.8782E-02
 ------------------------------------------------------------------------------------------------------------------------
       60 -1.1812E+04  1.9658E+02 -1.5213E+04 -1.5213E+04  0.0000E+00  0.0000E+00  0.0000E+00  0.0000E+00  0.0000E+00
 120.000f -1.1055E+04  1.9946E+02 -9.3451E+02  1.4404E+04  0.0000E+00  0.0000E+00  0.0000E+00  0.0000E+00  0.0000E+00
   2.127s  1.0412E+05  0.0000E+00  0.0000E+00  0.0000E+00  9.0000E+01  9.0000E+01  9.0000E+01  0.0000E+00  2.2072E-01

  rolling -1.1811E+04  1.9983E+02 -1.5254E+04 -1.5254E+04  0.0000E+00  0.0000E+00  0.0000E+00  0.0000E+00  0.0000E+00
 averages -1.2043E+04  2.0303E+02  2.0930E+03  1.6402E+04  0.0000E+00  0.0000E+00  0.0000E+00  0.0000E+00  0.0000E+00
           1.0447E+05  0.0000E+00  0.0000E+00  0.0000E+00  9.0000E+01  9.0000E+01  9.0000E+01  0.0000E+00  6.4490E-02
 ------------------------------------------------------------------------------------------------------------------------
       70 -1.1813E+04  1.9566E+02 -1.5196E+04 -1.5196E+04  0.0000E+00  0.0000E+00  0.0000E+00  0.0000E+00  0.0000E+00
 140.000f -1.0787E+04  1.9700E+02 -1.7235E+03  1.3916E+04  0.0000E+00  0.0000E+00  0.0000E+00  0.0000E+00  0.0000E+00
   2.321s  1.0406E+05  0.0000E+00  0.0000E+00  0.0000E+00  9.0000E+01  9.0000E+01  9.0000E+01  0.0000E+00  2.6236E-01

  rolling -1.1811E+04  1.9928E+02 -1.5247E+04 -1.5247E+04  0.0000E+00  0.0000E+00  0.0000E+00  0.0000E+00  0.0000E+00
 averages -1.1878E+04  2.0232E+02  1.5914E+03  1.6073E+04  0.0000E+00  0.0000E+00  0.0000E+00  0.0000E+00  0.0000E+00
           1.0441E+05  0.0000E+00  0.0000E+00  0.0000E+00  9.0000E+01  9.0000E+01  9.0000E+01  0.0000E+00  9.0437E-02
 ------------------------------------------------------------------------------------------------------------------------
 ------------------------------------------------------------------------------------------------------------------------

     step     eng_tot    temp_tot     eng_cfg     eng_vdw     eng_cou     eng_bnd     eng_ang     eng_dih     eng_tet
 time          eng_pv    temp_rot     vir_cfg     vir_vdw     vir_cou     vir_bnd     vir_ang     vir_con     vir_tet
 cpu time      volume    temp_shl     eng_shl     vir_shl       alpha        beta       gamma     vir_pmf       press

 ------------------------------------------------------------------------------------------------------------------------
       80 -1.1814E+04  1.9605E+02 -1.5195E+04 -1.5195E+04  0.0000E+00  0.0000E+00  0.0000E+00  0.0000E+00  0.0000E+00
 160.000f -1.0751E+04  1.9572E+02 -1.7877E+03  1.3908E+04  0.0000E+00  0.0000E+00  0.0000E+00  0.0000E+00  0.0000E+00
   2.445s  1.0407E+05  0.0000E+00  0.0000E+00  0.0000E+00  9.0000E+01  9.0000E+01  9.0000E+01  0.0000E+00  2.6703E-01

  rolling -1.1811E+04  1.9884E+02 -1.5240E+04 -1.5240E+04  0.0000E+00  0.0000E+00  0.0000E+00  0.0000E+00  0.0000E+00
 averages -1.1737E+04  2.0155E+02  1.1646E+03  1.5798E+04  0.0000E+00  0.0000E+00  0.0000E+00  0.0000E+00  0.0000E+00
           1.0437E+05  0.0000E+00  0.0000E+00  0.0000E+00  9.0000E+01  9.0000E+01  9.0000E+01  0.0000E+00  1.1267E-01
 ------------------------------------------------------------------------------------------------------------------------
       90 -1.1814E+04  1.9734E+02 -1.5202E+04 -1.5202E+04  0.0000E+00  0.0000E+00  0.0000E+00  0.0000E+00  0.0000E+00
 180.000f -1.0949E+04  1.9576E+02 -1.1258E+03  1.4299E+04  0.0000E+00  0.0000E+00  0.0000E+00  0.0000E+00  0.0000E+00
   2.627s  1.0415E+05  0.0000E+00  0.0000E+00  0.0000E+00  9.0000E+01  9.0000E+01  9.0000E+01  0.0000E+00  2.3399E-01

  rolling -1.1812E+04  1.9861E+02 -1.5236E+04 -1.5236E+04  0.0000E+00  0.0000E+00  0.0000E+00  0.0000E+00  0.0000E+00
 averages -1.1637E+04  2.0089E+02  8.7075E+02  1.5609E+04  0.0000E+00  0.0000E+00  0.0000E+00  0.0000E+00  0.0000E+00
           1.0434E+05  0.0000E+00  0.0000E+00  0.0000E+00  9.0000E+01  9.0000E+01  9.0000E+01  0.0000E+00  1.2812E-01
 ------------------------------------------------------------------------------------------------------------------------
      100 -1.1813E+04  1.9927E+02 -1.5215E+04 -1.5215E+04  0.0000E+00  0.0000E+00  0.0000E+00  0.0000E+00  0.0000E+00
 200.000f -1.1322E+04  1.9698E+02  7.6178E+01  1.5000E+04  0.0000E+00  0.0000E+00  0.0000E+00  0.0000E+00  0.0000E+00
   2.809s  1.0429E+05  0.0000E+00  0.0000E+00  0.0000E+00  9.0000E+01  9.0000E+01  9.0000E+01  0.0000E+00  1.7284E-01

  rolling -1.1812E+04  1.9858E+02 -1.5233E+04 -1.5233E+04  0.0000E+00  0.0000E+00  0.0000E+00  0.0000E+00  0.0000E+00
 averages -1.1588E+04  2.0044E+02  7.3386E+02  1.5514E+04  0.0000E+00  0.0000E+00  0.0000E+00  0.0000E+00  0.0000E+00
           1.0433E+05  0.0000E+00  0.0000E+00  0.0000E+00  9.0000E+01  9.0000E+01  9.0000E+01  0.0000E+00  1.3552E-01
 ------------------------------------------------------------------------------------------------------------------------
      110 -1.1813E+04  2.0143E+02 -1.5230E+04 -1.5230E+04  0.0000E+00  0.0000E+00  0.0000E+00  0.0000E+00  0.0000E+00
 220.000f -1.1731E+04  1.9869E+02  1.3912E+03  1.5858E+04  0.0000E+00  0.0000E+00  0.0000E+00  0.0000E+00  0.0000E+00
   2.935s  1.0445E+05  0.0000E+00  0.0000E+00  0.0000E+00  9.0000E+01  9.0000E+01  9.0000E+01  0.0000E+00  1.0596E-01

  rolling -1.1812E+04  1.9859E+02 -1.5230E+04 -1.5230E+04  0.0000E+00  0.0000E+00  0.0000E+00  0.0000E+00  0.0000E+00
 averages -1.1498E+04  1.9999E+02  4.8016E+02  1.5320E+04  0.0000E+00  0.0000E+00  0.0000E+00  0.0000E+00  0.0000E+00
           1.0430E+05  0.0000E+00  0.0000E+00  0.0000E+00  9.0000E+01  9.0000E+01  9.0000E+01  0.0000E+00  1.4908E-01
 ------------------------------------------------------------------------------------------------------------------------
      120 -1.1812E+04  2.0271E+02 -1.5234E+04 -1.5234E+04  0.0000E+00  0.0000E+00  0.0000E+00  0.0000E+00  0.0000E+00
 240.000f -1.2006E+04  1.9959E+02  2.2825E+03  1.6577E+04  0.0000E+00  0.0000E+00  0.0000E+00  0.0000E+00  0.0000E+00
   3.117s  1.0461E+05  0.0000E+00  0.0000E+00  0.0000E+00  9.0000E+01  9.0000E+01  9.0000E+01  0.0000E+00  6.0602E-02

  rolling -1.1812E+04  1.9872E+02 -1.5226E+04 -1.5226E+04  0.0000E+00  0.0000E+00  0.0000E+00  0.0000E+00  0.0000E+00
 averages -1.1441E+04  1.9951E+02  3.3192E+02  1.5215E+04  0.0000E+00  0.0000E+00  0.0000E+00  0.0000E+00  0.0000E+00
           1.0429E+05  0.0000E+00  0.0000E+00  0.0000E+00  9.0000E+01  9.0000E+01  9.0000E+01  0.0000E+00  1.5729E-01
 ------------------------------------------------------------------------------------------------------------------------
      130 -1.1813E+04  2.0289E+02 -1.5226E+04 -1.5226E+04  0.0000E+00  0.0000E+00  0.0000E+00  0.0000E+00  0.0000E+00
 260.000f -1.2139E+04  1.9996E+02  2.7151E+03  1.7058E+04  0.0000E+00  0.0000E+00  0.0000E+00  0.0000E+00  0.0000E+00
   3.312s  1.0476E+05  0.0000E+00  0.0000E+00  0.0000E+00  9.0000E+01  9.0000E+01  9.0000E+01  0.0000E+00  3.8008E-02

  rolling -1.1813E+04  1.9890E+02 -1.5222E+04 -1.5222E+04  0.0000E+00  0.0000E+00  0.0000E+00  0.0000E+00  0.0000E+00
 averages -1.1413E+04  1.9903E+02  2.7792E+02  1.5202E+04  0.0000E+00  0.0000E+00  0.0000E+00  0.0000E+00  0.0000E+00
           1.0430E+05  0.0000E+00  0.0000E+00  0.0000E+00  9.0000E+01  9.0000E+01  9.0000E+01  0.0000E+00  1.6065E-01
 ------------------------------------------------------------------------------------------------------------------------
      140 -1.1813E+04  2.0262E+02 -1.5215E+04 -1.5215E+04  0.0000E+00  0.0000E+00  0.0000E+00  0.0000E+00  0.0000E+00
 280.000f -1.2228E+04  2.0064E+02  2.9904E+03  1.7373E+04  0.0000E+00  0.0000E+00  0.0000E+00  0.0000E+00  0.0000E+00
   3.436s  1.0488E+05  0.0000E+00  0.0000E+00  0.0000E+00  9.0000E+01  9.0000E+01  9.0000E+01  0.0000E+00  2.2828E-02

  rolling -1.1813E+04  1.9914E+02 -1.5218E+04 -1.5218E+04  0.0000E+00  0.0000E+00  0.0000E+00  0.0000E+00  0.0000E+00
 averages -1.1424E+04  1.9867E+02  3.4485E+02  1.5289E+04  0.0000E+00  0.0000E+00  0.0000E+00  0.0000E+00  0.0000E+00
           1.0434E+05  0.0000E+00  0.0000E+00  0.0000E+00  9.0000E+01  9.0000E+01  9.0000E+01  0.0000E+00  1.5770E-01
 ------------------------------------------------------------------------------------------------------------------------
      150 -1.1814E+04  2.0280E+02 -1.5213E+04 -1.5213E+04  0.0000E+00  0.0000E+00  0.0000E+00  0.0000E+00  0.0000E+00
 300.000f -1.2394E+04  2.0203E+02  3.4886E+03  1.7670E+04  0.0000E+00  0.0000E+00  0.0000E+00  0.0000E+00  0.0000E+00
   3.619s  1.0497E+05  0.0000E+00  0.0000E+00  0.0000E+00  9.0000E+01  9.0000E+01  9.0000E+01  0.0000E+00 -3.6740E-03

  rolling -1.1813E+04  1.9951E+02 -1.5215E+04 -1.5215E+04  0.0000E+00  0.0000E+00  0.0000E+00  0.0000E+00  0.0000E+00
 averages -1.1489E+04  1.9854E+02  5.7705E+02  1.5485E+04  0.0000E+00  0.0000E+00  0.0000E+00  0.0000E+00  0.0000E+00
           1.0440E+05  0.0000E+00  0.0000E+00  0.0000E+00  9.0000E+01  9.0000E+01  9.0000E+01  0.0000E+00  1.4615E-01
 ------------------------------------------------------------------------------------------------------------------------
 ------------------------------------------------------------------------------------------------------------------------

     step     eng_tot    temp_tot     eng_cfg     eng_vdw     eng_cou     eng_bnd     eng_ang     eng_dih     eng_tet
 time          eng_pv    temp_rot     vir_cfg     vir_vdw     vir_cou     vir_bnd     vir_ang     vir_con     vir_tet
 cpu time      volume    temp_shl     eng_shl     vir_shl       alpha        beta       gamma     vir_pmf       press

 ------------------------------------------------------------------------------------------------------------------------
      160 -1.1815E+04  2.0358E+02 -1.5223E+04 -1.5223E+04  0.0000E+00  0.0000E+00  0.0000E+00  0.0000E+00  0.0000E+00
 320.000f -1.2617E+04  2.0338E+02  4.1694E+03  1.7942E+04  0.0000E+00  0.0000E+00  0.0000E+00  0.0000E+00  0.0000E+00
   3.801s  1.0501E+05  0.0000E+00  0.0000E+00  0.0000E+00  9.0000E+01  9.0000E+01  9.0000E+01  0.0000E+00 -3.8731E-02

  rolling -1.1813E+04  2.0010E+02 -1.5214E+04 -1.5214E+04  0.0000E+00  0.0000E+00  0.0000E+00  0.0000E+00  0.0000E+00
 averages -1.1617E+04  1.9877E+02  1.0035E+03  1.5793E+04  0.0000E+00  0.0000E+00  0.0000E+00  0.0000E+00  0.0000E+00
           1.0448E+05  0.0000E+00  0.0000E+00  0.0000E+00  9.0000E+01  9.0000E+01  9.0000E+01  0.0000E+00  1.2454E-01
 ------------------------------------------------------------------------------------------------------------------------
      170 -1.1815E+04  2.0404E+02 -1.5232E+04 -1.5232E+04  0.0000E+00  0.0000E+00  0.0000E+00  0.0000E+00  0.0000E+00
 340.000f -1.2747E+04  2.0307E+02  4.5670E+03  1.7992E+04  0.0000E+00  0.0000E+00  0.0000E+00  0.0000E+00  0.0000E+00
   3.984s  1.0498E+05  0.0000E+00  0.0000E+00  0.0000E+00  9.0000E+01  9.0000E+01  9.0000E+01  0.0000E+00 -5.8581E-02

  rolling -1.1813E+04  2.0089E+02 -1.5217E+04 -1.5217E+04  0.0000E+00  0.0000E+00  0.0000E+00  0.0000E+00  0.0000E+00
 averages -1.1798E+04  1.9930E+02  1.5881E+03  1.6182E+04  0.0000E+00  0.0000E+00  0.0000E+00  0.0000E+00  0.0000E+00
           1.0458E+05  0.0000E+00  0.0000E+00  0.0000E+00  9.0000E+01  9.0000E+01  9.0000E+01  0.0000E+00  9.4759E-02
 ------------------------------------------------------------------------------------------------------------------------
      180 -1.1815E+04  2.0373E+02 -1.5235E+04 -1.5235E+04  0.0000E+00  0.0000E+00  0.0000E+00  0.0000E+00  0.0000E+00
 360.000f -1.2697E+04  2.0117E+02  4.4081E+03  1.7718E+04  0.0000E+00  0.0000E+00  0.0000E+00  0.0000E+00  0.0000E+00
   4.108s  1.0490E+05  0.0000E+00  0.0000E+00  0.0000E+00  9.0000E+01  9.0000E+01  9.0000E+01  0.0000E+00 -4.9696E-02

  rolling -1.1814E+04  2.0171E+02 -1.5221E+04 -1.5221E+04  0.0000E+00  0.0000E+00  0.0000E+00  0.0000E+00  0.0000E+00
 averages -1.1997E+04  1.9990E+02  2.2231E+03  1.6582E+04  0.0000E+00  0.0000E+00  0.0000E+00  0.0000E+00  0.0000E+00
           1.0466E+05  0.0000E+00  0.0000E+00  0.0000E+00  9.0000E+01  9.0000E+01  9.0000E+01  0.0000E+00  6.2324E-02
 ------------------------------------------------------------------------------------------------------------------------
      190 -1.1816E+04  2.0299E+02 -1.5237E+04 -1.5237E+04  0.0000E+00  0.0000E+00  0.0000E+00  0.0000E+00  0.0000E+00
 380.000f -1.2487E+04  1.9927E+02  3.7413E+03  1.7206E+04  0.0000E+00  0.0000E+00  0.0000E+00  0.0000E+00  0.0000E+00
   4.301s  1.0474E+05  0.0000E+00  0.0000E+00  0.0000E+00  9.0000E+01  9.0000E+01  9.0000E+01  0.0000E+00 -1.4963E-02

  rolling -1.1814E+04  2.0237E+02 -1.5225E+04 -1.5225E+04  0.0000E+00  0.0000E+00  0.0000E+00  0.0000E+00  0.0000E+00
 averages -1.2172E+04  2.0034E+02  2.7788E+03  1.6918E+04  0.0000E+00  0.0000E+00  0.0000E+00  0.0000E+00  0.0000E+00
           1.0473E+05  0.0000E+00  0.0000E+00  0.0000E+00  9.0000E+01  9.0000E+01  9.0000E+01  0.0000E+00  3.3904E-02
 ------------------------------------------------------------------------------------------------------------------------
      200 -1.1816E+04  2.0221E+02 -1.5240E+04 -1.5240E+04  0.0000E+00  0.0000E+00  0.0000E+00  0.0000E+00  0.0000E+00
 400.000f -1.2173E+04  1.9913E+02  2.7389E+03  1.6548E+04  0.0000E+00  0.0000E+00  0.0000E+00  0.0000E+00  0.0000E+00
   4.484s  1.0455E+05  0.0000E+00  0.0000E+00  0.0000E+00  9.0000E+01  9.0000E+01  9.0000E+01  0.0000E+00  3.6320E-02

  rolling -1.1814E+04  2.0279E+02 -1.5227E+04 -1.5227E+04  0.0000E+00  0.0000E+00  0.0000E+00  0.0000E+00  0.0000E+00
 averages -1.2290E+04  2.0060E+02  3.1493E+03  1.7137E+04  0.0000E+00  0.0000E+00  0.0000E+00  0.0000E+00  0.0000E+00
           1.0478E+05  0.0000E+00  0.0000E+00  0.0000E+00  9.0000E+01  9.0000E+01  9.0000E+01  0.0000E+00  1.4941E-02
 ------------------------------------------------------------------------------------------------------------------------
      210 -1.1816E+04  2.0150E+02 -1.5246E+04 -1.5246E+04  0.0000E+00  0.0000E+00  0.0000E+00  0.0000E+00  0.0000E+00
 420.000f -1.1822E+04  2.0144E+02  1.5926E+03  1.5829E+04  0.0000E+00  0.0000E+00  0.0000E+00  0.0000E+00  0.0000E+00
   4.608s  1.0433E+05  0.0000E+00  0.0000E+00  0.0000E+00  9.0000E+01  9.0000E+01  9.0000E+01  0.0000E+00  9.4026E-02

  rolling -1.1814E+04  2.0293E+02 -1.5229E+04 -1.5229E+04  0.0000E+00  0.0000E+00  0.0000E+00  0.0000E+00  0.0000E+00
 averages -1.2333E+04  2.0083E+02  3.2796E+03  1.7205E+04  0.0000E+00  0.0000E+00  0.0000E+00  0.0000E+00  0.0000E+00
           1.0478E+05  0.0000E+00  0.0000E+00  0.0000E+00  9.0000E+01  9.0000E+01  9.0000E+01  0.0000E+00  8.1824E-03
 ------------------------------------------------------------------------------------------------------------------------
      220 -1.1815E+04  2.0045E+02 -1.5247E+04 -1.5247E+04  0.0000E+00  0.0000E+00  0.0000E+00  0.0000E+00  0.0000E+00
 440.000f -1.1437E+04  2.0454E+02  3.2335E+02  1.5033E+04  0.0000E+00  0.0000E+00  0.0000E+00  0.0000E+00  0.0000E+00
   4.791s  1.0411E+05  0.0000E+00  0.0000E+00  0.0000E+00  9.0000E+01  9.0000E+01  9.0000E+01  0.0000E+00  1.5746E-01

  rolling -1.1815E+04  2.0280E+02 -1.5231E+04 -1.5231E+04  0.0000E+00  0.0000E+00  0.0000E+00  0.0000E+00  0.0000E+00
 averages -1.2304E+04  2.0122E+02  3.1764E+03  1.7117E+04  0.0000E+00  0.0000E+00  0.0000E+00  0.0000E+00  0.0000E+00
           1.0475E+05  0.0000E+00  0.0000E+00  0.0000E+00  9.0000E+01  9.0000E+01  9.0000E+01  0.0000E+00  1.3197E-02
 ------------------------------------------------------------------------------------------------------------------------
      230 -1.1815E+04  1.9925E+02 -1.5247E+04 -1.5247E+04  0.0000E+00  0.0000E+00  0.0000E+00  0.0000E+00  0.0000E+00
 460.000f -1.1103E+04  2.0658E+02 -7.8759E+02  1.4288E+04  0.0000E+00  0.0000E+00  0.0000E+00  0.0000E+00  0.0000E+00
   4.973s  1.0392E+05  0.0000E+00  0.0000E+00  0.0000E+00  9.0000E+01  9.0000E+01  9.0000E+01  0.0000E+00  2.1316E-01

  rolling -1.1815E+04  2.0249E+02 -1.5232E+04 -1.5232E+04  0.0000E+00  0.0000E+00  0.0000E+00  0.0000E+00  0.0000E+00
 averages -1.2220E+04  2.0182E+02  2.8906E+03  1.6893E+04  0.0000E+00  0.0000E+00  0.0000E+00  0.0000E+00  0.0000E+00
           1.0468E+05  0.0000E+00  0.0000E+00  0.0000E+00  9.0000E+01  9.0000E+01  9.0000E+01  0.0000E+00  2.7432E-02
 ------------------------------------------------------------------------------------------------------------------------
 ------------------------------------------------------------------------------------------------------------------------

     step     eng_tot    temp_tot     eng_cfg     eng_vdw     eng_cou     eng_bnd     eng_ang     eng_dih     eng_tet
 time          eng_pv    temp_rot     vir_cfg     vir_vdw     vir_cou     vir_bnd     vir_ang     vir_con     vir_tet
 cpu time      volume    temp_shl     eng_shl     vir_shl       alpha        beta       gamma     vir_pmf       press

 ------------------------------------------------------------------------------------------------------------------------
      240 -1.1815E+04  1.9794E+02 -1.5245E+04 -1.5245E+04  0.0000E+00  0.0000E+00  0.0000E+00  0.0000E+00  0.0000E+00
 480.000f -1.0842E+04  2.0606E+02 -1.6487E+03  1.3684E+04  0.0000E+00  0.0000E+00  0.0000E+00  0.0000E+00  0.0000E+00
   5.098s  1.0378E+05  0.0000E+00  0.0000E+00  0.0000E+00  9.0000E+01  9.0000E+01  9.0000E+01  0.0000E+00  2.5716E-01

  rolling -1.1815E+04  2.0207E+02 -1.5235E+04 -1.5235E+04  0.0000E+00  0.0000E+00  0.0000E+00  0.0000E+00  0.0000E+00
 averages -1.2097E+04  2.0245E+02  2.4759E+03  1.6563E+04  0.0000E+00  0.0000E+00  0.0000E+00  0.0000E+00  0.0000E+00
           1.0458E+05  0.0000E+00  0.0000E+00  0.0000E+00  9.0000E+01  9.0000E+01  9.0000E+01  0.0000E+00  4.8288E-02
 ------------------------------------------------------------------------------------------------------------------------
      250 -1.1814E+04  1.9718E+02 -1.5248E+04 -1.5248E+04  0.0000E+00  0.0000E+00  0.0000E+00  0.0000E+00  0.0000E+00
 500.000f -1.0710E+04  2.0360E+02 -2.0790E+03  1.3421E+04  0.0000E+00  0.0000E+00  0.0000E+00  0.0000E+00  0.0000E+00
   5.292s  1.0370E+05  0.0000E+00  0.0000E+00  0.0000E+00  9.0000E+01  9.0000E+01  9.0000E+01  0.0000E+00  2.8035E-01

  rolling -1.1815E+04  2.0155E+02 -1.5238E+04 -1.5238E+04  0.0000E+00  0.0000E+00  0.0000E+00  0.0000E+00  0.0000E+00
 averages -1.1941E+04  2.0279E+02  1.9589E+03  1.6160E+04  0.0000E+00  0.0000E+00  0.0000E+00  0.0000E+00  0.0000E+00
           1.0446E+05  0.0000E+00  0.0000E+00  0.0000E+00  9.0000E+01  9.0000E+01  9.0000E+01  0.0000E+00  7.4551E-02
 ------------------------------------------------------------------------------------------------------------------------
      260 -1.1815E+04  1.9709E+02 -1.5260E+04 -1.5260E+04  0.0000E+00  0.0000E+00  0.0000E+00  0.0000E+00  0.0000E+00
 520.000f -1.0771E+04  2.0007E+02 -1.8997E+03  1.3568E+04  0.0000E+00  0.0000E+00  0.0000E+00  0.0000E+00  0.0000E+00
   5.474s  1.0370E+05  0.0000E+00  0.0000E+00  0.0000E+00  9.0000E+01  9.0000E+01  9.0000E+01  0.0000E+00  2.7285E-01

  rolling -1.1815E+04  2.0094E+02 -1.5242E+04 -1.5242E+04  0.0000E+00  0.0000E+00  0.0000E+00  0.0000E+00  0.0000E+00
 averages -1.1762E+04  2.0268E+02  1.3696E+03  1.5724E+04  0.0000E+00  0.0000E+00  0.0000E+00  0.0000E+00  0.0000E+00
           1.0433E+05  0.0000E+00  0.0000E+00  0.0000E+00  9.0000E+01  9.0000E+01  9.0000E+01  0.0000E+00  1.0473E-01
 ------------------------------------------------------------------------------------------------------------------------
      270 -1.1816E+04  1.9696E+02 -1.5270E+04 -1.5270E+04  0.0000E+00  0.0000E+00  0.0000E+00  0.0000E+00  0.0000E+00
 540.000f -1.1001E+04  1.9617E+02 -1.2024E+03  1.3979E+04  0.0000E+00  0.0000E+00  0.0000E+00  0.0000E+00  0.0000E+00
   5.657s  1.0378E+05  0.0000E+00  0.0000E+00  0.0000E+00  9.0000E+01  9.0000E+01  9.0000E+01  0.0000E+00  2.3807E-01

  rolling -1.1815E+04  2.0025E+02 -1.5246E+04 -1.5246E+04  0.0000E+00  0.0000E+00  0.0000E+00  0.0000E+00  0.0000E+00
 averages -1.1580E+04  2.0213E+02  7.7117E+02  1.5302E+04  0.0000E+00  0.0000E+00  0.0000E+00  0.0000E+00  0.0000E+00
           1.0420E+05  0.0000E+00  0.0000E+00  0.0000E+00  9.0000E+01  9.0000E+01  9.0000E+01  0.0000E+00  1.3549E-01
 ------------------------------------------------------------------------------------------------------------------------
      280 -1.1816E+04  1.9759E+02 -1.5286E+04 -1.5286E+04  0.0000E+00  0.0000E+00  0.0000E+00  0.0000E+00  0.0000E+00
 560.000f -1.1417E+04  1.9520E+02  5.0691E+01  1.4734E+04  0.0000E+00  0.0000E+00  0.0000E+00  0.0000E+00  0.0000E+00
   5.782s  1.0390E+05  0.0000E+00  0.0000E+00  0.0000E+00  9.0000E+01  9.0000E+01  9.0000E+01  0.0000E+00  1.7340E-01

  rolling -1.1815E+04  1.9958E+02 -1.5250E+04 -1.5250E+04  0.0000E+00  0.0000E+00  0.0000E+00  0.0000E+00  0.0000E+00
 averages -1.1428E+04  2.0144E+02  2.6205E+02  1.4951E+04  0.0000E+00  0.0000E+00  0.0000E+00  0.0000E+00  0.0000E+00
           1.0409E+05  0.0000E+00  0.0000E+00  0.0000E+00  9.0000E+01  9.0000E+01  9.0000E+01  0.0000E+00  1.6163E-01
 ------------------------------------------------------------------------------------------------------------------------
      290 -1.1815E+04  1.9978E+02 -1.5321E+04 -1.5321E+04  0.0000E+00  0.0000E+00  0.0000E+00  0.0000E+00  0.0000E+00
 580.000f -1.2003E+04  1.9919E+02  1.8120E+03  1.5878E+04  0.0000E+00  0.0000E+00  0.0000E+00  0.0000E+00  0.0000E+00
   5.965s  1.0406E+05  0.0000E+00  0.0000E+00  0.0000E+00  9.0000E+01  9.0000E+01  9.0000E+01  0.0000E+00  8.1546E-02

  rolling -1.1815E+04  1.9911E+02 -1.5257E+04 -1.5257E+04  0.0000E+00  0.0000E+00  0.0000E+00  0.0000E+00  0.0000E+00
 averages -1.1342E+04  2.0114E+02 -4.6367E+01  1.4740E+04  0.0000E+00  0.0000E+00  0.0000E+00  0.0000E+00  0.0000E+00
           1.0401E+05  0.0000E+00  0.0000E+00  0.0000E+00  9.0000E+01  9.0000E+01  9.0000E+01  0.0000E+00  1.7730E-01
 ------------------------------------------------------------------------------------------------------------------------
      300 -1.1815E+04  2.0245E+02 -1.5363E+04 -1.5363E+04  0.0000E+00  0.0000E+00  0.0000E+00  0.0000E+00  0.0000E+00
 600.000f -1.2590E+04  2.0502E+02  3.5706E+03  1.7085E+04  0.0000E+00  0.0000E+00  0.0000E+00  0.0000E+00  0.0000E+00
   6.148s  1.0420E+05  0.0000E+00  0.0000E+00  0.0000E+00  9.0000E+01  9.0000E+01  9.0000E+01  0.0000E+00 -1.0262E-02

  rolling -1.1815E+04  1.9898E+02 -1.5268E+04 -1.5268E+04  0.0000E+00  0.0000E+00  0.0000E+00  0.0000E+00  0.0000E+00
 averages -1.1344E+04  2.0149E+02 -8.5646E+01  1.4711E+04  0.0000E+00  0.0000E+00  0.0000E+00  0.0000E+00  0.0000E+00
           1.0396E+05  0.0000E+00  0.0000E+00  0.0000E+00  9.0000E+01  9.0000E+01  9.0000E+01  0.0000E+00  1.7898E-01
 ------------------------------------------------------------------------------------------------------------------------
      310 -1.1815E+04  2.0349E+02 -1.5383E+04 -1.5383E+04  0.0000E+00  0.0000E+00  0.0000E+00  0.0000E+00  0.0000E+00
 620.000f -1.2939E+04  2.0782E+02  4.5957E+03  1.7823E+04  0.0000E+00  0.0000E+00  0.0000E+00  0.0000E+00  0.0000E+00
   6.278s  1.0429E+05  0.0000E+00  0.0000E+00  0.0000E+00  9.0000E+01  9.0000E+01  9.0000E+01  0.0000E+00 -6.4080E-02

  rolling -1.1815E+04  1.9912E+02 -1.5281E+04 -1.5281E+04  0.0000E+00  0.0000E+00  0.0000E+00  0.0000E+00  0.0000E+00
 averages -1.1426E+04  2.0216E+02  1.2391E+02  1.4850E+04  0.0000E+00  0.0000E+00  0.0000E+00  0.0000E+00  0.0000E+00
           1.0394E+05  0.0000E+00  0.0000E+00  0.0000E+00  9.0000E+01  9.0000E+01  9.0000E+01  0.0000E+00  1.6782E-01
 ------------------------------------------------------------------------------------------------------------------------
 ------------------------------------------------------------------------------------------------------------------------

     step     eng_tot    temp_tot     eng_cfg     eng_vdw     eng_cou     eng_bnd     eng_ang     eng_dih     eng_tet
 time          eng_pv    temp_rot     vir_cfg     vir_vdw     vir_cou     vir_bnd     vir_ang     vir_con     vir_tet
 cpu time      volume    temp_shl     eng_shl     vir_shl       alpha        beta       gamma     vir_pmf       press

 ------------------------------------------------------------------------------------------------------------------------
      320 -1.1813E+04  2.0237E+02 -1.5377E+04 -1.5377E+04  0.0000E+00  0.0000E+00  0.0000E+00  0.0000E+00  0.0000E+00
 640.000f -1.2986E+04  2.0690E+02  4.6898E+03  1.7900E+04  0.0000E+00  0.0000E+00  0.0000E+00  0.0000E+00  0.0000E+00
   6.466s  1.0432E+05  0.0000E+00  0.0000E+00  0.0000E+00  9.0000E+01  9.0000E+01  9.0000E+01  0.0000E+00 -7.0082E-02

  rolling -1.1815E+04  1.9933E+02 -1.5294E+04 -1.5294E+04  0.0000E+00  0.0000E+00  0.0000E+00  0.0000E+00  0.0000E+00
 averages -1.1564E+04  2.0259E+02  5.0551E+02  1.5102E+04  0.0000E+00  0.0000E+00  0.0000E+00  0.0000E+00  0.0000E+00
           1.0395E+05  0.0000E+00  0.0000E+00  0.0000E+00  9.0000E+01  9.0000E+01  9.0000E+01  0.0000E+00  1.4786E-01
 ------------------------------------------------------------------------------------------------------------------------
      330 -1.1814E+04  2.0031E+02 -1.5361E+04 -1.5361E+04  0.0000E+00  0.0000E+00  0.0000E+00  0.0000E+00  0.0000E+00
 660.000f -1.2839E+04  2.0476E+02  4.1743E+03  1.7526E+04  0.0000E+00  0.0000E+00  0.0000E+00  0.0000E+00  0.0000E+00
   6.649s  1.0427E+05  0.0000E+00  0.0000E+00  0.0000E+00  9.0000E+01  9.0000E+01  9.0000E+01  0.0000E+00 -4.4874E-02

  rolling -1.1815E+04  1.9948E+02 -1.5306E+04 -1.5306E+04  0.0000E+00  0.0000E+00  0.0000E+00  0.0000E+00  0.0000E+00
 averages -1.1731E+04  2.0259E+02  9.8157E+02  1.5413E+04  0.0000E+00  0.0000E+00  0.0000E+00  0.0000E+00  0.0000E+00
           1.0398E+05  0.0000E+00  0.0000E+00  0.0000E+00  9.0000E+01  9.0000E+01  9.0000E+01  0.0000E+00  1.2310E-01
 ------------------------------------------------------------------------------------------------------------------------
      340 -1.1815E+04  1.9775E+02 -1.5339E+04 -1.5339E+04  0.0000E+00  0.0000E+00  0.0000E+00  0.0000E+00  0.0000E+00
 680.000f -1.2502E+04  2.0216E+02  3.0827E+03  1.6799E+04  0.0000E+00  0.0000E+00  0.0000E+00  0.0000E+00  0.0000E+00
   6.774s  1.0417E+05  0.0000E+00  0.0000E+00  0.0000E+00  9.0000E+01  9.0000E+01  9.0000E+01  0.0000E+00  1.0095E-02

  rolling -1.1815E+04  1.9952E+02 -1.5317E+04 -1.5317E+04  0.0000E+00  0.0000E+00  0.0000E+00  0.0000E+00  0.0000E+00
 averages -1.1903E+04  2.0227E+02  1.4719E+03  1.5734E+04  0.0000E+00  0.0000E+00  0.0000E+00  0.0000E+00  0.0000E+00
           1.0402E+05  0.0000E+00  0.0000E+00  0.0000E+00  9.0000E+01  9.0000E+01  9.0000E+01  0.0000E+00  9.7556E-02
 ------------------------------------------------------------------------------------------------------------------------
      350 -1.1814E+04  1.9539E+02 -1.5315E+04 -1.5315E+04  0.0000E+00  0.0000E+00  0.0000E+00  0.0000E+00  0.0000E+00
 700.000f -1.2044E+04  1.9915E+02  1.6481E+03  1.5924E+04  0.0000E+00  0.0000E+00  0.0000E+00  0.0000E+00  0.0000E+00
   6.957s  1.0403E+05  0.0000E+00  0.0000E+00  0.0000E+00  9.0000E+01  9.0000E+01  9.0000E+01  0.0000E+00  8.3731E-02

  rolling -1.1815E+04  1.9941E+02 -1.5325E+04 -1.5325E+04  0.0000E+00  0.0000E+00  0.0000E+00  0.0000E+00  0.0000E+00
 averages -1.2053E+04  2.0184E+02  1.8954E+03  1.6016E+04  0.0000E+00  0.0000E+00  0.0000E+00  0.0000E+00  0.0000E+00
           1.0406E+05  0.0000E+00  0.0000E+00  0.0000E+00  9.0000E+01  9.0000E+01  9.0000E+01  0.0000E+00  7.5331E-02
 ------------------------------------------------------------------------------------------------------------------------
      360 -1.1816E+04  1.9415E+02 -1.5303E+04 -1.5303E+04  0.0000E+00  0.0000E+00  0.0000E+00  0.0000E+00  0.0000E+00
 720.000f -1.1608E+04  1.9619E+02  3.2066E+02  1.5188E+04  0.0000E+00  0.0000E+00  0.0000E+00  0.0000E+00  0.0000E+00
   7.139s  1.0389E+05  0.0000E+00  0.0000E+00  0.0000E+00  9.0000E+01  9.0000E+01  9.0000E+01  0.0000E+00  1.5357E-01

  rolling -1.1815E+04  1.9916E+02 -1.5330E+04 -1.5330E+04  0.0000E+00  0.0000E+00  0.0000E+00  0.0000E+00  0.0000E+00
 averages -1.2160E+04  2.0142E+02  2.1878E+03  1.6218E+04  0.0000E+00  0.0000E+00  0.0000E+00  0.0000E+00  0.0000E+00
           1.0408E+05  0.0000E+00  0.0000E+00  0.0000E+00  9.0000E+01  9.0000E+01  9.0000E+01  0.0000E+00  5.9779E-02
 ------------------------------------------------------------------------------------------------------------------------
      370 -1.1816E+04  1.9404E+02 -1.5299E+04 -1.5299E+04  0.0000E+00  0.0000E+00  0.0000E+00  0.0000E+00  0.0000E+00
 740.000f -1.1249E+04  1.9376E+02 -7.2533E+02  1.4676E+04  0.0000E+00  0.0000E+00  0.0000E+00  0.0000E+00  0.0000E+00
   7.332s  1.0377E+05  0.0000E+00  0.0000E+00  0.0000E+00  9.0000E+01  9.0000E+01  9.0000E+01  0.0000E+00  2.1008E-01

  rolling -1.1815E+04  1.9886E+02 -1.5333E+04 -1.5333E+04  0.0000E+00  0.0000E+00  0.0000E+00  0.0000E+00  0.0000E+00
 averages -1.2212E+04  2.0111E+02  2.3159E+03  1.6330E+04  0.0000E+00  0.0000E+00  0.0000E+00  0.0000E+00  0.0000E+00
           1.0409E+05  0.0000E+00  0.0000E+00  0.0000E+00  9.0000E+01  9.0000E+01  9.0000E+01  0.0000E+00  5.2757E-02
 ------------------------------------------------------------------------------------------------------------------------
      380 -1.1816E+04  1.9405E+02 -1.5290E+04 -1.5290E+04  0.0000E+00  0.0000E+00  0.0000E+00  0.0000E+00  0.0000E+00
 760.000f -1.0950E+04  1.9212E+02 -1.5759E+03  1.4279E+04  0.0000E+00  0.0000E+00  0.0000E+00  0.0000E+00  0.0000E+00
   7.457s  1.0370E+05  0.0000E+00  0.0000E+00  0.0000E+00  9.0000E+01  9.0000E+01  9.0000E+01  0.0000E+00  2.5601E-01

  rolling -1.1815E+04  1.9855E+02 -1.5335E+04 -1.5335E+04  0.0000E+00  0.0000E+00  0.0000E+00  0.0000E+00  0.0000E+00
 averages -1.2199E+04  2.0087E+02  2.2521E+03  1.6340E+04  0.0000E+00  0.0000E+00  0.0000E+00  0.0000E+00  0.0000E+00
           1.0408E+05  0.0000E+00  0.0000E+00  0.0000E+00  9.0000E+01  9.0000E+01  9.0000E+01  0.0000E+00  5.5826E-02
 ------------------------------------------------------------------------------------------------------------------------
      390 -1.1816E+04  1.9349E+02 -1.5267E+04 -1.5267E+04  0.0000E+00  0.0000E+00  0.0000E+00  0.0000E+00  0.0000E+00
 780.000f -1.0722E+04  1.9131E+02 -2.2205E+03  1.3942E+04  0.0000E+00  0.0000E+00  0.0000E+00  0.0000E+00  0.0000E+00
   7.640s  1.0370E+05  0.0000E+00  0.0000E+00  0.0000E+00  9.0000E+01  9.0000E+01  9.0000E+01  0.0000E+00  2.8963E-01

  rolling -1.1815E+04  1.9806E+02 -1.5333E+04 -1.5333E+04  0.0000E+00  0.0000E+00  0.0000E+00  0.0000E+00  0.0000E+00
 averages -1.2107E+04  2.0033E+02  1.9569E+03  1.6214E+04  0.0000E+00  0.0000E+00  0.0000E+00  0.0000E+00  0.0000E+00
           1.0405E+05  0.0000E+00  0.0000E+00  0.0000E+00  9.0000E+01  9.0000E+01  9.0000E+01  0.0000E+00  7.1009E-02
 ------------------------------------------------------------------------------------------------------------------------
 ------------------------------------------------------------------------------------------------------------------------

     step     eng_tot    temp_tot     eng_cfg     eng_vdw     eng_cou     eng_bnd     eng_ang     eng_dih     eng_tet
 time          eng_pv    temp_rot     vir_cfg     vir_vdw     vir_cou     vir_bnd     vir_ang     vir_con     vir_tet
 cpu time      volume    temp_shl     eng_shl     vir_shl       alpha        beta       gamma     vir_pmf       press

 ------------------------------------------------------------------------------------------------------------------------
      400 -1.1817E+04  1.9347E+02 -1.5248E+04 -1.5248E+04  0.0000E+00  0.0000E+00  0.0000E+00  0.0000E+00  0.0000E+00
 800.000f -1.0718E+04  1.9172E+02 -2.1796E+03  1.3931E+04  0.0000E+00  0.0000E+00  0.0000E+00  0.0000E+00  0.0000E+00
   7.823s  1.0377E+05  0.0000E+00  0.0000E+00  0.0000E+00  9.0000E+01  9.0000E+01  9.0000E+01  0.0000E+00  2.8699E-01

  rolling -1.1815E+04  1.9726E+02 -1.5324E+04 -1.5324E+04  0.0000E+00  0.0000E+00  0.0000E+00  0.0000E+00  0.0000E+00
 averages -1.1943E+04  1.9922E+02  1.4472E+03  1.5947E+04  0.0000E+00  0.0000E+00  0.0000E+00  0.0000E+00  0.0000E+00
           1.0401E+05  0.0000E+00  0.0000E+00  0.0000E+00  9.0000E+01  9.0000E+01  9.0000E+01  0.0000E+00  9.7341E-02
 ------------------------------------------------------------------------------------------------------------------------
      410 -1.1817E+04  1.9566E+02 -1.5252E+04 -1.5252E+04  0.0000E+00  0.0000E+00  0.0000E+00  0.0000E+00  0.0000E+00
 820.000f -1.1050E+04  1.9402E+02 -1.0693E+03  1.4546E+04  0.0000E+00  0.0000E+00  0.0000E+00  0.0000E+00  0.0000E+00
   7.948s  1.0393E+05  0.0000E+00  0.0000E+00  0.0000E+00  9.0000E+01  9.0000E+01  9.0000E+01  0.0000E+00  2.3008E-01

  rolling -1.1815E+04  1.9639E+02 -1.5311E+04 -1.5311E+04  0.0000E+00  0.0000E+00  0.0000E+00  0.0000E+00  0.0000E+00
 averages -1.1750E+04  1.9781E+02  8.6112E+02  1.5614E+04  0.0000E+00  0.0000E+00  0.0000E+00  0.0000E+00  0.0000E+00
           1.0397E+05  0.0000E+00  0.0000E+00  0.0000E+00  9.0000E+01  9.0000E+01  9.0000E+01  0.0000E+00  1.2770E-01
 ------------------------------------------------------------------------------------------------------------------------
      420 -1.1816E+04  1.9906E+02 -1.5268E+04 -1.5268E+04  0.0000E+00  0.0000E+00  0.0000E+00  0.0000E+00  0.0000E+00
 840.000f -1.1519E+04  1.9684E+02  4.9611E+02  1.5535E+04  0.0000E+00  0.0000E+00  0.0000E+00  0.0000E+00  0.0000E+00
   8.131s  1.0413E+05  0.0000E+00  0.0000E+00  0.0000E+00  9.0000E+01  9.0000E+01  9.0000E+01  0.0000E+00  1.5084E-01

  rolling -1.1816E+04  1.9584E+02 -1.5299E+04 -1.5299E+04  0.0000E+00  0.0000E+00  0.0000E+00  0.0000E+00  0.0000E+00
 averages -1.1582E+04  1.9662E+02  3.6927E+02  1.5331E+04  0.0000E+00  0.0000E+00  0.0000E+00  0.0000E+00  0.0000E+00
           1.0394E+05  0.0000E+00  0.0000E+00  0.0000E+00  9.0000E+01  9.0000E+01  9.0000E+01  0.0000E+00  1.5340E-01
 ------------------------------------------------------------------------------------------------------------------------
      430 -1.1815E+04  2.0186E+02 -1.5273E+04 -1.5273E+04  0.0000E+00  0.0000E+00  0.0000E+00  0.0000E+00  0.0000E+00
 860.000f -1.1890E+04  1.9893E+02  1.7667E+03  1.6474E+04  0.0000E+00  0.0000E+00  0.0000E+00  0.0000E+00  0.0000E+00
   8.328s  1.0436E+05  0.0000E+00  0.0000E+00  0.0000E+00  9.0000E+01  9.0000E+01  9.0000E+01  0.0000E+00  8.6883E-02

  rolling -1.1816E+04  1.9578E+02 -1.5289E+04 -1.5289E+04  0.0000E+00  0.0000E+00  0.0000E+00  0.0000E+00  0.0000E+00
 averages -1.1464E+04  1.9585E+02  4.7727E+01  1.5165E+04  0.0000E+00  0.0000E+00  0.0000E+00  0.0000E+00  0.0000E+00
           1.0394E+05  0.0000E+00  0.0000E+00  0.0000E+00  9.0000E+01  9.0000E+01  9.0000E+01  0.0000E+00  1.7061E-01
 ------------------------------------------------------------------------------------------------------------------------
      440 -1.1815E+04  2.0359E+02 -1.5265E+04 -1.5265E+04  0.0000E+00  0.0000E+00  0.0000E+00  0.0000E+00  0.0000E+00
 880.000f -1.2119E+04  2.0058E+02  2.5803E+03  1.7198E+04  0.0000E+00  0.0000E+00  0.0000E+00  0.0000E+00  0.0000E+00
   8.511s  1.0458E+05  0.0000E+00  0.0000E+00  0.0000E+00  9.0000E+01  9.0000E+01  9.0000E+01  0.0000E+00  4.5766E-02

  rolling -1.1816E+04  1.9618E+02 -1.5281E+04 -1.5281E+04  0.0000E+00  0.0000E+00  0.0000E+00  0.0000E+00  0.0000E+00
 averages -1.1400E+04  1.9550E+02 -8.9071E+01  1.5140E+04  0.0000E+00  0.0000E+00  0.0000E+00  0.0000E+00  0.0000E+00
           1.0396E+05  0.0000E+00  0.0000E+00  0.0000E+00  9.0000E+01  9.0000E+01  9.0000E+01  0.0000E+00  1.7855E-01
 ------------------------------------------------------------------------------------------------------------------------
      450 -1.1814E+04  2.0405E+02 -1.5243E+04 -1.5243E+04  0.0000E+00  0.0000E+00  0.0000E+00  0.0000E+00  0.0000E+00
 900.000f -1.2239E+04  2.0148E+02  3.0289E+03  1.7620E+04  0.0000E+00  0.0000E+00  0.0000E+00  0.0000E+00  0.0000E+00
   8.636s  1.0478E+05  0.0000E+00  0.0000E+00  0.0000E+00  9.0000E+01  9.0000E+01  9.0000E+01  0.0000E+00  2.2444E-02

  rolling -1.1816E+04  1.9694E+02 -1.5274E+04 -1.5274E+04  0.0000E+00  0.0000E+00  0.0000E+00  0.0000E+00  0.0000E+00
 averages -1.1393E+04  1.9556E+02 -3.4104E+01  1.5254E+04  0.0000E+00  0.0000E+00  0.0000E+00  0.0000E+00  0.0000E+00
           1.0402E+05  0.0000E+00  0.0000E+00  0.0000E+00  9.0000E+01  9.0000E+01  9.0000E+01  0.0000E+00  1.7673E-01
 ------------------------------------------------------------------------------------------------------------------------
      460 -1.1813E+04  2.0341E+02 -1.5210E+04 -1.5210E+04  0.0000E+00  0.0000E+00  0.0000E+00  0.0000E+00  0.0000E+00
 920.000f -1.2300E+04  2.0135E+02  3.2676E+03  1.7738E+04  0.0000E+00  0.0000E+00  0.0000E+00  0.0000E+00  0.0000E+00
   8.818s  1.0494E+05  0.0000E+00  0.0000E+00  0.0000E+00  9.0000E+01  9.0000E+01  9.0000E+01  0.0000E+00  9.1196E-03

  rolling -1.1816E+04  1.9785E+02 -1.5266E+04 -1.5266E+04  0.0000E+00  0.0000E+00  0.0000E+00  0.0000E+00  0.0000E+00
 averages -1.1441E+04  1.9596E+02  1.9320E+02  1.5474E+04  0.0000E+00  0.0000E+00  0.0000E+00  0.0000E+00  0.0000E+00
           1.0411E+05  0.0000E+00  0.0000E+00  0.0000E+00  9.0000E+01  9.0000E+01  9.0000E+01  0.0000E+00  1.6588E-01
 ------------------------------------------------------------------------------------------------------------------------
      470 -1.1812E+04  2.0273E+02 -1.5179E+04 -1.5179E+04  0.0000E+00  0.0000E+00  0.0000E+00  0.0000E+00  0.0000E+00
 940.000f -1.2357E+04  2.0089E+02  3.4864E+03  1.7739E+04  0.0000E+00  0.0000E+00  0.0000E+00  0.0000E+00  0.0000E+00
   9.001s  1.0507E+05  0.0000E+00  0.0000E+00  0.0000E+00  9.0000E+01  9.0000E+01  9.0000E+01  0.0000E+00 -2.9885E-03

  rolling -1.1815E+04  1.9875E+02 -1.5255E+04 -1.5255E+04  0.0000E+00  0.0000E+00  0.0000E+00  0.0000E+00  0.0000E+00
 averages -1.1534E+04  1.9659E+02  5.5926E+02  1.5759E+04  0.0000E+00  0.0000E+00  0.0000E+00  0.0000E+00  0.0000E+00
           1.0423E+05  0.0000E+00  0.0000E+00  0.0000E+00  9.0000E+01  9.0000E+01  9.0000E+01  0.0000E+00  1.4757E-01
 ------------------------------------------------------------------------------------------------------------------------
 ------------------------------------------------------------------------------------------------------------------------

     step     eng_tot    temp_tot     eng_cfg     eng_vdw     eng_cou     eng_bnd     eng_ang     eng_dih     eng_tet
 time          eng_pv    temp_rot     vir_cfg     vir_vdw     vir_cou     vir_bnd     vir_ang     vir_con     vir_tet
 cpu time      volume    temp_shl     eng_shl     vir_shl       alpha        beta       gamma     vir_pmf       press

 ------------------------------------------------------------------------------------------------------------------------
      480 -1.1812E+04  2.0285E+02 -1.5164E+04 -1.5164E+04  0.0000E+00  0.0000E+00  0.0000E+00  0.0000E+00  0.0000E+00
 960.000f -1.2410E+04  2.0059E+02  3.7055E+03  1.7770E+04  0.0000E+00  0.0000E+00  0.0000E+00  0.0000E+00  0.0000E+00
   9.183s  1.0515E+05  0.0000E+00  0.0000E+00  0.0000E+00  9.0000E+01  9.0000E+01  9.0000E+01  0.0000E+00 -1.4023E-02

  rolling -1.1815E+04  1.9961E+02 -1.5243E+04 -1.5243E+04  0.0000E+00  0.0000E+00  0.0000E+00  0.0000E+00  0.0000E+00
 averages -1.1664E+04  1.9738E+02  1.0406E+03  1.6089E+04  0.0000E+00  0.0000E+00  0.0000E+00  0.0000E+00  0.0000E+00
           1.0437E+05  0.0000E+00  0.0000E+00  0.0000E+00  9.0000E+01  9.0000E+01  9.0000E+01  0.0000E+00  1.2304E-01
 ------------------------------------------------------------------------------------------------------------------------
      490 -1.1811E+04  2.0361E+02 -1.5160E+04 -1.5160E+04  0.0000E+00  0.0000E+00  0.0000E+00  0.0000E+00  0.0000E+00
 980.000f -1.2420E+04  2.0074E+02  3.7986E+03  1.7795E+04  0.0000E+00  0.0000E+00  0.0000E+00  0.0000E+00  0.0000E+00
   9.320s  1.0519E+05  0.0000E+00  0.0000E+00  0.0000E+00  9.0000E+01  9.0000E+01  9.0000E+01  0.0000E+00 -1.7833E-02

  rolling -1.1814E+04  2.0056E+02 -1.5231E+04 -1.5231E+04  0.0000E+00  0.0000E+00  0.0000E+00  0.0000E+00  0.0000E+00
 averages -1.1825E+04  1.9828E+02  1.6139E+03  1.6459E+04  0.0000E+00  0.0000E+00  0.0000E+00  0.0000E+00  0.0000E+00
           1.0452E+05  0.0000E+00  0.0000E+00  0.0000E+00  9.0000E+01  9.0000E+01  9.0000E+01  0.0000E+00  9.3728E-02
 ------------------------------------------------------------------------------------------------------------------------
      500 -1.1810E+04  2.0416E+02 -1.5158E+04 -1.5158E+04  0.0000E+00  0.0000E+00  0.0000E+00  0.0000E+00  0.0000E+00
   1.000p -1.2339E+04  2.0128E+02  3.5947E+03  1.7657E+04  0.0000E+00  0.0000E+00  0.0000E+00  0.0000E+00  0.0000E+00
   9.502s  1.0517E+05  0.0000E+00  0.0000E+00  0.0000E+00  9.0000E+01  9.0000E+01  9.0000E+01  0.0000E+00 -6.7442E-03

  rolling -1.1814E+04  2.0162E+02 -1.5221E+04 -1.5221E+04  0.0000E+00  0.0000E+00  0.0000E+00  0.0000E+00  0.0000E+00
 averages -1.1994E+04  1.9925E+02  2.2137E+03  1.6844E+04  0.0000E+00  0.0000E+00  0.0000E+00  0.0000E+00  0.0000E+00
           1.0467E+05  0.0000E+00  0.0000E+00  0.0000E+00  9.0000E+01  9.0000E+01  9.0000E+01  0.0000E+00  6.3158E-02
 ------------------------------------------------------------------------------------------------------------------------
      510 -1.1810E+04  2.0410E+02 -1.5151E+04 -1.5151E+04  0.0000E+00  0.0000E+00  0.0000E+00  0.0000E+00  0.0000E+00
   1.020p -1.2174E+04  2.0174E+02  3.1092E+03  1.7291E+04  0.0000E+00  0.0000E+00  0.0000E+00  0.0000E+00  0.0000E+00
   9.684s  1.0511E+05  0.0000E+00  0.0000E+00  0.0000E+00  9.0000E+01  9.0000E+01  9.0000E+01  0.0000E+00  1.8119E-02

  rolling -1.1813E+04  2.0259E+02 -1.5212E+04 -1.5212E+04  0.0000E+00  0.0000E+00  0.0000E+00  0.0000E+00  0.0000E+00
 averages -1.2132E+04  2.0012E+02  2.7129E+03  1.7170E+04  0.0000E+00  0.0000E+00  0.0000E+00  0.0000E+00  0.0000E+00
           1.0480E+05  0.0000E+00  0.0000E+00  0.0000E+00  9.0000E+01  9.0000E+01  9.0000E+01  0.0000E+00  3.7804E-02
 ------------------------------------------------------------------------------------------------------------------------
      520 -1.1809E+04  2.0328E+02 -1.5139E+04 -1.5139E+04  0.0000E+00  0.0000E+00  0.0000E+00  0.0000E+00  0.0000E+00
   1.040p -1.1964E+04  2.0152E+02  2.4620E+03  1.6704E+04  0.0000E+00  0.0000E+00  0.0000E+00  0.0000E+00  0.0000E+00
   9.809s  1.0501E+05  0.0000E+00  0.0000E+00  0.0000E+00  9.0000E+01  9.0000E+01  9.0000E+01  0.0000E+00  5.0733E-02

  rolling -1.1812E+04  2.0321E+02 -1.5200E+04 -1.5200E+04  0.0000E+00  0.0000E+00  0.0000E+00  0.0000E+00  0.0000E+00
 averages -1.2207E+04  2.0072E+02  3.0097E+03  1.7360E+04  0.0000E+00  0.0000E+00  0.0000E+00  0.0000E+00  0.0000E+00
           1.0490E+05  0.0000E+00  0.0000E+00  0.0000E+00  9.0000E+01  9.0000E+01  9.0000E+01  0.0000E+00  2.2738E-02
 ------------------------------------------------------------------------------------------------------------------------
      530 -1.1808E+04  2.0218E+02 -1.5126E+04 -1.5126E+04  0.0000E+00  0.0000E+00  0.0000E+00  0.0000E+00  0.0000E+00
   1.060p -1.1761E+04  2.0106E+02  1.8187E+03  1.6044E+04  0.0000E+00  0.0000E+00  0.0000E+00  0.0000E+00  0.0000E+00
   9.991s  1.0490E+05  0.0000E+00  0.0000E+00  0.0000E+00  9.0000E+01  9.0000E+01  9.0000E+01  0.0000E+00  8.2951E-02

  rolling -1.1812E+04  2.0341E+02 -1.5186E+04 -1.5186E+04  0.0000E+00  0.0000E+00  0.0000E+00  0.0000E+00  0.0000E+00
 averages -1.2218E+04  2.0105E+02  3.0961E+03  1.7387E+04  0.0000E+00  0.0000E+00  0.0000E+00  0.0000E+00  0.0000E+00
           1.0497E+05  0.0000E+00  0.0000E+00  0.0000E+00  9.0000E+01  9.0000E+01  9.0000E+01  0.0000E+00  1.8268E-02
 ------------------------------------------------------------------------------------------------------------------------
      540 -1.1809E+04  2.0174E+02 -1.5125E+04 -1.5125E+04  0.0000E+00  0.0000E+00  0.0000E+00  0.0000E+00  0.0000E+00
   1.080p -1.1603E+04  2.0104E+02  1.3187E+03  1.5537E+04  0.0000E+00  0.0000E+00  0.0000E+00  0.0000E+00  0.0000E+00
  10.174s  1.0478E+05  0.0000E+00  0.0000E+00  0.0000E+00  9.0000E+01  9.0000E+01  9.0000E+01  0.0000E+00  1.0848E-01

  rolling -1.1811E+04  2.0330E+02 -1.5172E+04 -1.5172E+04  0.0000E+00  0.0000E+00  0.0000E+00  0.0000E+00  0.0000E+00
 averages -1.2182E+04  2.0116E+02  3.0238E+03  1.7272E+04  0.0000E+00  0.0000E+00  0.0000E+00  0.0000E+00  0.0000E+00
           1.0500E+05  0.0000E+00  0.0000E+00  0.0000E+00  9.0000E+01  9.0000E+01  9.0000E+01  0.0000E+00  2.1791E-02
 ------------------------------------------------------------------------------------------------------------------------
      550 -1.1808E+04  2.0268E+02 -1.5145E+04 -1.5145E+04  0.0000E+00  0.0000E+00  0.0000E+00  0.0000E+00  0.0000E+00
   1.100p -1.1534E+04  2.0218E+02  1.1018E+03  1.5358E+04  0.0000E+00  0.0000E+00  0.0000E+00  0.0000E+00  0.0000E+00
  10.367s  1.0466E+05  0.0000E+00  0.0000E+00  0.0000E+00  9.0000E+01  9.0000E+01  9.0000E+01  0.0000E+00  1.2064E-01

  rolling -1.1810E+04  2.0312E+02 -1.5159E+04 -1.5159E+04  0.0000E+00  0.0000E+00  0.0000E+00  0.0000E+00  0.0000E+00
 averages -1.2119E+04  2.0119E+02  2.8559E+03  1.7067E+04  0.0000E+00  0.0000E+00  0.0000E+00  0.0000E+00  0.0000E+00
           1.0501E+05  0.0000E+00  0.0000E+00  0.0000E+00  9.0000E+01  9.0000E+01  9.0000E+01  0.0000E+00  3.0264E-02
 ------------------------------------------------------------------------------------------------------------------------
 ------------------------------------------------------------------------------------------------------------------------

     step     eng_tot    temp_tot     eng_cfg     eng_vdw     eng_cou     eng_bnd     eng_ang     eng_dih     eng_tet
 time          eng_pv    temp_rot     vir_cfg     vir_vdw     vir_cou     vir_bnd     vir_ang     vir_con     vir_tet
 cpu time      volume    temp_shl     eng_shl     vir_shl       alpha        beta       gamma     vir_pmf       press

 ------------------------------------------------------------------------------------------------------------------------
      560 -1.1808E+04  2.0387E+02 -1.5172E+04 -1.5172E+04  0.0000E+00  0.0000E+00  0.0000E+00  0.0000E+00  0.0000E+00
   1.120p -1.1487E+04  2.0373E+02  9.4862E+02  1.5316E+04  0.0000E+00  0.0000E+00  0.0000E+00  0.0000E+00  0.0000E+00
  10.491s  1.0455E+05  0.0000E+00  0.0000E+00  0.0000E+00  9.0000E+01  9.0000E+01  9.0000E+01  0.0000E+00  1.2959E-01

  rolling -1.1810E+04  2.0309E+02 -1.5153E+04 -1.5153E+04  0.0000E+00  0.0000E+00  0.0000E+00  0.0000E+00  0.0000E+00
 averages -1.2043E+04  2.0136E+02  2.6430E+03  1.6831E+04  0.0000E+00  0.0000E+00  0.0000E+00  0.0000E+00  0.0000E+00
           1.0498E+05  0.0000E+00  0.0000E+00  0.0000E+00  9.0000E+01  9.0000E+01  9.0000E+01  0.0000E+00  4.1240E-02
 ------------------------------------------------------------------------------------------------------------------------
      570 -1.1807E+04  2.0269E+02 -1.5170E+04 -1.5170E+04  0.0000E+00  0.0000E+00  0.0000E+00  0.0000E+00  0.0000E+00
   1.140p -1.1269E+04  2.0261E+02  2.3116E+02  1.4946E+04  0.0000E+00  0.0000E+00  0.0000E+00  0.0000E+00  0.0000E+00
  10.675s  1.0446E+05  0.0000E+00  0.0000E+00  0.0000E+00  9.0000E+01  9.0000E+01  9.0000E+01  0.0000E+00  1.6617E-01

  rolling -1.1809E+04  2.0314E+02 -1.5151E+04 -1.5151E+04  0.0000E+00  0.0000E+00  0.0000E+00  0.0000E+00  0.0000E+00
 averages -1.1948E+04  2.0159E+02  2.3661E+03  1.6572E+04  0.0000E+00  0.0000E+00  0.0000E+00  0.0000E+00  0.0000E+00
           1.0493E+05  0.0000E+00  0.0000E+00  0.0000E+00  9.0000E+01  9.0000E+01  9.0000E+01  0.0000E+00  5.5650E-02
 ------------------------------------------------------------------------------------------------------------------------
      580 -1.1807E+04  1.9924E+02 -1.5138E+04 -1.5138E+04  0.0000E+00  0.0000E+00  0.0000E+00  0.0000E+00  0.0000E+00
   1.160p -1.0897E+04  1.9816E+02 -9.8080E+02  1.4306E+04  0.0000E+00  0.0000E+00  0.0000E+00  0.0000E+00  0.0000E+00
  10.857s  1.0440E+05  0.0000E+00  0.0000E+00  0.0000E+00  9.0000E+01  9.0000E+01  9.0000E+01  0.0000E+00  2.2723E-01

  rolling -1.1809E+04  2.0295E+02 -1.5150E+04 -1.5150E+04  0.0000E+00  0.0000E+00  0.0000E+00  0.0000E+00  0.0000E+00
 averages -1.1816E+04  2.0156E+02  1.9621E+03  1.6256E+04  0.0000E+00  0.0000E+00  0.0000E+00  0.0000E+00  0.0000E+00
           1.0486E+05  0.0000E+00  0.0000E+00  0.0000E+00  9.0000E+01  9.0000E+01  9.0000E+01  0.0000E+00  7.6533E-02
 ------------------------------------------------------------------------------------------------------------------------
      590 -1.1807E+04  1.9709E+02 -1.5125E+04 -1.5125E+04  0.0000E+00  0.0000E+00  0.0000E+00  0.0000E+00  0.0000E+00
   1.180p -1.0711E+04  1.9429E+02 -1.6080E+03  1.4129E+04  0.0000E+00  0.0000E+00  0.0000E+00  0.0000E+00  0.0000E+00
  10.982s  1.0439E+05  0.0000E+00  0.0000E+00  0.0000E+00  9.0000E+01  9.0000E+01  9.0000E+01  0.0000E+00  2.5918E-01

  rolling -1.1809E+04  2.0241E+02 -1.5146E+04 -1.5146E+04  0.0000E+00  0.0000E+00  0.0000E+00  0.0000E+00  0.0000E+00
 averages -1.1651E+04  2.0107E+02  1.4429E+03  1.5891E+04  0.0000E+00  0.0000E+00  0.0000E+00  0.0000E+00  0.0000E+00
           1.0478E+05  0.0000E+00  0.0000E+00  0.0000E+00  9.0000E+01  9.0000E+01  9.0000E+01  0.0000E+00  1.0317E-01
 ------------------------------------------------------------------------------------------------------------------------
      600 -1.1808E+04  1.9749E+02 -1.5145E+04 -1.5145E+04  0.0000E+00  0.0000E+00  0.0000E+00  0.0000E+00  0.0000E+00
   1.200p -1.0844E+04  1.9275E+02 -1.2240E+03  1.4677E+04  0.0000E+00  0.0000E+00  0.0000E+00  0.0000E+00  0.0000E+00
  11.164s  1.0445E+05  0.0000E+00  0.0000E+00  0.0000E+00  9.0000E+01  9.0000E+01  9.0000E+01  0.0000E+00  2.4044E-01

  rolling -1.1808E+04  2.0173E+02 -1.5144E+04 -1.5144E+04  0.0000E+00  0.0000E+00  0.0000E+00  0.0000E+00  0.0000E+00
 averages -1.1489E+04  2.0031E+02  9.2569E+02  1.5556E+04  0.0000E+00  0.0000E+00  0.0000E+00  0.0000E+00  0.0000E+00
           1.0470E+05  0.0000E+00  0.0000E+00  0.0000E+00  9.0000E+01  9.0000E+01  9.0000E+01  0.0000E+00  1.2968E-01
 ------------------------------------------------------------------------------------------------------------------------
      610 -1.1808E+04  1.9832E+02 -1.5169E+04 -1.5169E+04  0.0000E+00  0.0000E+00  0.0000E+00  0.0000E+00  0.0000E+00
   1.220p -1.1145E+04  1.9181E+02 -3.2669E+02  1.5509E+04  0.0000E+00  0.0000E+00  0.0000E+00  0.0000E+00  0.0000E+00
  11.358s  1.0457E+05  0.0000E+00  0.0000E+00  0.0000E+00  9.0000E+01  9.0000E+01  9.0000E+01  0.0000E+00  1.9506E-01

  rolling -1.1808E+04  2.0111E+02 -1.5144E+04 -1.5144E+04  0.0000E+00  0.0000E+00  0.0000E+00  0.0000E+00  0.0000E+00
 averages -1.1363E+04  1.9937E+02  5.1469E+02  1.5321E+04  0.0000E+00  0.0000E+00  0.0000E+00  0.0000E+00  0.0000E+00
           1.0464E+05  0.0000E+00  0.0000E+00  0.0000E+00  9.0000E+01  9.0000E+01  9.0000E+01  0.0000E+00  1.5080E-01
 ------------------------------------------------------------------------------------------------------------------------
      620 -1.1807E+04  1.9895E+02 -1.5188E+04 -1.5188E+04  0.0000E+00  0.0000E+00  0.0000E+00  0.0000E+00  0.0000E+00
   1.240p -1.1548E+04  1.9159E+02  8.7373E+02  1.6410E+04  0.0000E+00  0.0000E+00  0.0000E+00  0.0000E+00  0.0000E+00
  11.543s  1.0473E+05  0.0000E+00  0.0000E+00  0.0000E+00  9.0000E+01  9.0000E+01  9.0000E+01  0.0000E+00  1.3321E-01

  rolling -1.1808E+04  2.0061E+02 -1.5148E+04 -1.5148E+04  0.0000E+00  0.0000E+00  0.0000E+00  0.0000E+00  0.0000E+00
 averages -1.1293E+04  1.9836E+02  2.7067E+02  1.5223E+04  0.0000E+00  0.0000E+00  0.0000E+00  0.0000E+00  0.0000E+00
           1.0460E+05  0.0000E+00  0.0000E+00  0.0000E+00  9.0000E+01  9.0000E+01  9.0000E+01  0.0000E+00  1.6341E-01
 ------------------------------------------------------------------------------------------------------------------------
      630 -1.1807E+04  1.9880E+02 -1.5195E+04 -1.5195E+04  0.0000E+00  0.0000E+00  0.0000E+00  0.0000E+00  0.0000E+00
   1.260p -1.1941E+04  1.9127E+02  2.0246E+03  1.7181E+04  0.0000E+00  0.0000E+00  0.0000E+00  0.0000E+00  0.0000E+00
  11.668s  1.0490E+05  0.0000E+00  0.0000E+00  0.0000E+00  9.0000E+01  9.0000E+01  9.0000E+01  0.0000E+00  7.3017E-02

  rolling -1.1808E+04  2.0024E+02 -1.5154E+04 -1.5154E+04  0.0000E+00  0.0000E+00  0.0000E+00  0.0000E+00  0.0000E+00
 averages -1.1285E+04  1.9739E+02  2.1338E+02  1.5275E+04  0.0000E+00  0.0000E+00  0.0000E+00  0.0000E+00  0.0000E+00
           1.0459E+05  0.0000E+00  0.0000E+00  0.0000E+00  9.0000E+01  9.0000E+01  9.0000E+01  0.0000E+00  1.6644E-01
 ------------------------------------------------------------------------------------------------------------------------
 ------------------------------------------------------------------------------------------------------------------------

     step     eng_tot    temp_tot     eng_cfg     eng_vdw     eng_cou     eng_bnd     eng_ang     eng_dih     eng_tet
 time          eng_pv    temp_rot     vir_cfg     vir_vdw     vir_cou     vir_bnd     vir_ang     vir_con     vir_tet
 cpu time      volume    temp_shl     eng_shl     vir_shl       alpha        beta       gamma     vir_pmf       press

 ------------------------------------------------------------------------------------------------------------------------
      640 -1.1807E+04  1.9813E+02 -1.5193E+04 -1.5193E+04  0.0000E+00  0.0000E+00  0.0000E+00  0.0000E+00  0.0000E+00
   1.280p -1.2287E+04  1.9072E+02  3.0308E+03  1.7788E+04  0.0000E+00  0.0000E+00  0.0000E+00  0.0000E+00  0.0000E+00
  11.851s  1.0505E+05  0.0000E+00  0.0000E+00  0.0000E+00  9.0000E+01  9.0000E+01  9.0000E+01  0.0000E+00  1.9937E-02

  rolling -1.1808E+04  1.9989E+02 -1.5161E+04 -1.5161E+04  0.0000E+00  0.0000E+00  0.0000E+00  0.0000E+00  0.0000E+00
 averages -1.1332E+04  1.9638E+02  3.1822E+02  1.5453E+04  0.0000E+00  0.0000E+00  0.0000E+00  0.0000E+00  0.0000E+00
           1.0460E+05  0.0000E+00  0.0000E+00  0.0000E+00  9.0000E+01  9.0000E+01  9.0000E+01  0.0000E+00  1.6105E-01
 ------------------------------------------------------------------------------------------------------------------------
      650 -1.1808E+04  1.9870E+02 -1.5206E+04 -1.5206E+04  0.0000E+00  0.0000E+00  0.0000E+00  0.0000E+00  0.0000E+00
   1.300p -1.2702E+04  1.9166E+02  4.2635E+03  1.8473E+04  0.0000E+00  0.0000E+00  0.0000E+00  0.0000E+00  0.0000E+00
  12.033s  1.0517E+05  0.0000E+00  0.0000E+00  0.0000E+00  9.0000E+01  9.0000E+01  9.0000E+01  0.0000E+00 -4.3831E-02

  rolling -1.1808E+04  1.9951E+02 -1.5167E+04 -1.5167E+04  0.0000E+00  0.0000E+00  0.0000E+00  0.0000E+00  0.0000E+00
 averages -1.1427E+04  1.9533E+02  5.6924E+02  1.5727E+04  0.0000E+00  0.0000E+00  0.0000E+00  0.0000E+00  0.0000E+00
           1.0464E+05  0.0000E+00  0.0000E+00  0.0000E+00  9.0000E+01  9.0000E+01  9.0000E+01  0.0000E+00  1.4801E-01
 ------------------------------------------------------------------------------------------------------------------------
      660 -1.1808E+04  2.0066E+02 -1.5237E+04 -1.5237E+04  0.0000E+00  0.0000E+00  0.0000E+00  0.0000E+00  0.0000E+00
   1.320p -1.3118E+04  1.9418E+02  5.5306E+03  1.9175E+04  0.0000E+00  0.0000E+00  0.0000E+00  0.0000E+00  0.0000E+00
  12.221s  1.0522E+05  0.0000E+00  0.0000E+00  0.0000E+00  9.0000E+01  9.0000E+01  9.0000E+01  0.0000E+00 -1.0821E-01

  rolling -1.1808E+04  1.9914E+02 -1.5174E+04 -1.5174E+04  0.0000E+00  0.0000E+00  0.0000E+00  0.0000E+00  0.0000E+00
 averages -1.1569E+04  1.9432E+02  9.6419E+02  1.6080E+04  0.0000E+00  0.0000E+00  0.0000E+00  0.0000E+00  0.0000E+00
           1.0470E+05  0.0000E+00  0.0000E+00  0.0000E+00  9.0000E+01  9.0000E+01  9.0000E+01  0.0000E+00  1.2749E-01
 ------------------------------------------------------------------------------------------------------------------------
      670 -1.1808E+04  2.0222E+02 -1.5263E+04 -1.5263E+04  0.0000E+00  0.0000E+00  0.0000E+00  0.0000E+00  0.0000E+00
   1.340p -1.3293E+04  1.9627E+02  6.0598E+03  1.9483E+04  0.0000E+00  0.0000E+00  0.0000E+00  0.0000E+00  0.0000E+00
  12.351s  1.0518E+05  0.0000E+00  0.0000E+00  0.0000E+00  9.0000E+01  9.0000E+01  9.0000E+01  0.0000E+00 -1.3469E-01

  rolling -1.1808E+04  1.9895E+02 -1.5181E+04 -1.5181E+04  0.0000E+00  0.0000E+00  0.0000E+00  0.0000E+00  0.0000E+00
 averages -1.1755E+04  1.9352E+02  1.4939E+03  1.6505E+04  0.0000E+00  0.0000E+00  0.0000E+00  0.0000E+00  0.0000E+00
           1.0477E+05  0.0000E+00  0.0000E+00  0.0000E+00  9.0000E+01  9.0000E+01  9.0000E+01  0.0000E+00  1.0008E-01
 ------------------------------------------------------------------------------------------------------------------------
      680 -1.1807E+04  2.0165E+02 -1.5262E+04 -1.5262E+04  0.0000E+00  0.0000E+00  0.0000E+00  0.0000E+00  0.0000E+00
   1.360p -1.3050E+04  1.9595E+02  5.2976E+03  1.9027E+04  0.0000E+00  0.0000E+00  0.0000E+00  0.0000E+00  0.0000E+00
  12.534s  1.0504E+05  0.0000E+00  0.0000E+00  0.0000E+00  9.0000E+01  9.0000E+01  9.0000E+01  0.0000E+00 -9.5872E-02

  rolling -1.1808E+04  1.9908E+02 -1.5193E+04 -1.5193E+04  0.0000E+00  0.0000E+00  0.0000E+00  0.0000E+00  0.0000E+00
 averages -1.1968E+04  1.9312E+02  2.1120E+03  1.6975E+04  0.0000E+00  0.0000E+00  0.0000E+00  0.0000E+00  0.0000E+00
           1.0484E+05  0.0000E+00  0.0000E+00  0.0000E+00  9.0000E+01  9.0000E+01  9.0000E+01  0.0000E+00  6.8243E-02
 ------------------------------------------------------------------------------------------------------------------------
      690 -1.1808E+04  1.9915E+02 -1.5236E+04 -1.5236E+04  0.0000E+00  0.0000E+00  0.0000E+00  0.0000E+00  0.0000E+00
   1.380p -1.2470E+04  1.9369E+02  3.4841E+03  1.7892E+04  0.0000E+00  0.0000E+00  0.0000E+00  0.0000E+00  0.0000E+00
  12.716s  1.0482E+05  0.0000E+00  0.0000E+00  0.0000E+00  9.0000E+01  9.0000E+01  9.0000E+01  0.0000E+00 -3.8965E-03

  rolling -1.1808E+04  1.9934E+02 -1.5205E+04 -1.5205E+04  0.0000E+00  0.0000E+00  0.0000E+00  0.0000E+00  0.0000E+00
 averages -1.2166E+04  1.9302E+02  2.6896E+03  1.7406E+04  0.0000E+00  0.0000E+00  0.0000E+00  0.0000E+00  0.0000E+00
           1.0490E+05  0.0000E+00  0.0000E+00  0.0000E+00  9.0000E+01  9.0000E+01  9.0000E+01  0.0000E+00  3.8479E-02
 ------------------------------------------------------------------------------------------------------------------------
      700 -1.1808E+04  1.9652E+02 -1.5207E+04 -1.5207E+04  0.0000E+00  0.0000E+00  0.0000E+00  0.0000E+00  0.0000E+00
   1.400p -1.1805E+04  1.9217E+02  1.4130E+03  1.6505E+04  0.0000E+00  0.0000E+00  0.0000E+00  0.0000E+00  0.0000E+00
  12.898s  1.0456E+05  0.0000E+00  0.0000E+00  0.0000E+00  9.0000E+01  9.0000E+01  9.0000E+01  0.0000E+00  1.0133E-01

  rolling -1.1808E+04  1.9938E+02 -1.5213E+04 -1.5213E+04  0.0000E+00  0.0000E+00  0.0000E+00  0.0000E+00  0.0000E+00
 averages -1.2300E+04  1.9295E+02  3.0684E+03  1.7680E+04  0.0000E+00  0.0000E+00  0.0000E+00  0.0000E+00  0.0000E+00
           1.0492E+05  0.0000E+00  0.0000E+00  0.0000E+00  9.0000E+01  9.0000E+01  9.0000E+01  0.0000E+00  1.8755E-02
 ------------------------------------------------------------------------------------------------------------------------
      710 -1.1809E+04  1.9546E+02 -1.5194E+04 -1.5194E+04  0.0000E+00  0.0000E+00  0.0000E+00  0.0000E+00  0.0000E+00
   1.420p -1.1295E+04  1.9351E+02 -1.6858E+02  1.5328E+04  0.0000E+00  0.0000E+00  0.0000E+00  0.0000E+00  0.0000E+00
  13.023s  1.0431E+05  0.0000E+00  0.0000E+00  0.0000E+00  9.0000E+01  9.0000E+01  9.0000E+01  0.0000E+00  1.8207E-01

  rolling -1.1808E+04  1.9916E+02 -1.5217E+04 -1.5217E+04  0.0000E+00  0.0000E+00  0.0000E+00  0.0000E+00  0.0000E+00
 averages -1.2350E+04  1.9299E+02  3.1929E+03  1.7750E+04  0.0000E+00  0.0000E+00  0.0000E+00  0.0000E+00  0.0000E+00
           1.0491E+05  0.0000E+00  0.0000E+00  0.0000E+00  9.0000E+01  9.0000E+01  9.0000E+01  0.0000E+00  1.1912E-02
 ------------------------------------------------------------------------------------------------------------------------
 ------------------------------------------------------------------------------------------------------------------------

     step     eng_tot    temp_tot     eng_cfg     eng_vdw     eng_cou     eng_bnd     eng_ang     eng_dih     eng_tet
 time          eng_pv    temp_rot     vir_cfg     vir_vdw     vir_cou     vir_bnd     vir_ang     vir_con     vir_tet
 cpu time      volume    temp_shl     eng_shl     vir_shl       alpha        beta       gamma     vir_pmf       press

 ------------------------------------------------------------------------------------------------------------------------
      720 -1.1811E+04  1.9648E+02 -1.5206E+04 -1.5206E+04  0.0000E+00  0.0000E+00  0.0000E+00  0.0000E+00  0.0000E+00
   1.440p -1.1024E+04  1.9767E+02 -9.9278E+02  1.4599E+04  0.0000E+00  0.0000E+00  0.0000E+00  0.0000E+00  0.0000E+00
  13.206s  1.0410E+05  0.0000E+00  0.0000E+00  0.0000E+00  9.0000E+01  9.0000E+01  9.0000E+01  0.0000E+00  2.2474E-01

  rolling -1.1808E+04  1.9888E+02 -1.5219E+04 -1.5219E+04  0.0000E+00  0.0000E+00  0.0000E+00  0.0000E+00  0.0000E+00
 averages -1.2327E+04  1.9339E+02  3.0931E+03  1.7638E+04  0.0000E+00  0.0000E+00  0.0000E+00  0.0000E+00  0.0000E+00
           1.0487E+05  0.0000E+00  0.0000E+00  0.0000E+00  9.0000E+01  9.0000E+01  9.0000E+01  0.0000E+00  1.6563E-02
 ------------------------------------------------------------------------------------------------------------------------
      730 -1.1811E+04  1.9844E+02 -1.5227E+04 -1.5227E+04  0.0000E+00  0.0000E+00  0.0000E+00  0.0000E+00  0.0000E+00
   1.460p -1.0890E+04  2.0245E+02 -1.3742E+03  1.4202E+04  0.0000E+00  0.0000E+00  0.0000E+00  0.0000E+00  0.0000E+00
  13.399s  1.0394E+05  0.0000E+00  0.0000E+00  0.0000E+00  9.0000E+01  9.0000E+01  9.0000E+01  0.0000E+00  2.4520E-01

  rolling -1.1808E+04  1.9874E+02 -1.5221E+04 -1.5221E+04  0.0000E+00  0.0000E+00  0.0000E+00  0.0000E+00  0.0000E+00
 averages -1.2245E+04  1.9428E+02  2.8184E+03  1.7389E+04  0.0000E+00  0.0000E+00  0.0000E+00  0.0000E+00  0.0000E+00
           1.0478E+05  0.0000E+00  0.0000E+00  0.0000E+00  9.0000E+01  9.0000E+01  9.0000E+01  0.0000E+00  3.0342E-02
 ------------------------------------------------------------------------------------------------------------------------
      740 -1.1811E+04  1.9998E+02 -1.5241E+04 -1.5241E+04  0.0000E+00  0.0000E+00  0.0000E+00  0.0000E+00  0.0000E+00
   1.480p -1.0803E+04  2.0584E+02 -1.6087E+03  1.3970E+04  0.0000E+00  0.0000E+00  0.0000E+00  0.0000E+00  0.0000E+00
  13.581s  1.0384E+05  0.0000E+00  0.0000E+00  0.0000E+00  9.0000E+01  9.0000E+01  9.0000E+01  0.0000E+00  2.5805E-01

  rolling -1.1809E+04  1.9883E+02 -1.5226E+04 -1.5226E+04  0.0000E+00  0.0000E+00  0.0000E+00  0.0000E+00  0.0000E+00
 averages -1.2115E+04  1.9564E+02  2.4096E+03  1.7043E+04  0.0000E+00  0.0000E+00  0.0000E+00  0.0000E+00  0.0000E+00
           1.0467E+05  0.0000E+00  0.0000E+00  0.0000E+00  9.0000E+01  9.0000E+01  9.0000E+01  0.0000E+00  5.1226E-02
 ------------------------------------------------------------------------------------------------------------------------
      750 -1.1812E+04  2.0111E+02 -1.5251E+04 -1.5251E+04  0.0000E+00  0.0000E+00  0.0000E+00  0.0000E+00  0.0000E+00
   1.500p -1.0768E+04  2.0764E+02 -1.6849E+03  1.3966E+04  0.0000E+00  0.0000E+00  0.0000E+00  0.0000E+00  0.0000E+00
  13.706s  1.0380E+05  0.0000E+00  0.0000E+00  0.0000E+00  9.0000E+01  9.0000E+01  9.0000E+01  0.0000E+00  2.6275E-01

  rolling -1.1809E+04  1.9906E+02 -1.5231E+04 -1.5231E+04  0.0000E+00  0.0000E+00  0.0000E+00  0.0000E+00  0.0000E+00
 averages -1.1943E+04  1.9722E+02  1.8746E+03  1.6623E+04  0.0000E+00  0.0000E+00  0.0000E+00  0.0000E+00  0.0000E+00
           1.0454E+05  0.0000E+00  0.0000E+00  0.0000E+00  9.0000E+01  9.0000E+01  9.0000E+01  0.0000E+00  7.8764E-02
 ------------------------------------------------------------------------------------------------------------------------
      760 -1.1812E+04  2.0236E+02 -1.5264E+04 -1.5264E+04  0.0000E+00  0.0000E+00  0.0000E+00  0.0000E+00  0.0000E+00
   1.520p -1.0825E+04  2.0826E+02 -1.4721E+03  1.4306E+04  0.0000E+00  0.0000E+00  0.0000E+00  0.0000E+00  0.0000E+00
  13.889s  1.0384E+05  0.0000E+00  0.0000E+00  0.0000E+00  9.0000E+01  9.0000E+01  9.0000E+01  0.0000E+00  2.5295E-01

  rolling -1.1810E+04  1.9927E+02 -1.5234E+04 -1.5234E+04  0.0000E+00  0.0000E+00  0.0000E+00  0.0000E+00  0.0000E+00
 averages -1.1727E+04  1.9873E+02  1.2154E+03  1.6147E+04  0.0000E+00  0.0000E+00  0.0000E+00  0.0000E+00  0.0000E+00
           1.0440E+05  0.0000E+00  0.0000E+00  0.0000E+00  9.0000E+01  9.0000E+01  9.0000E+01  0.0000E+00  1.1275E-01
 ------------------------------------------------------------------------------------------------------------------------
      770 -1.1812E+04  2.0416E+02 -1.5288E+04 -1.5288E+04  0.0000E+00  0.0000E+00  0.0000E+00  0.0000E+00  0.0000E+00
   1.540p -1.1076E+04  2.0837E+02 -6.6739E+02  1.5052E+04  0.0000E+00  0.0000E+00  0.0000E+00  0.0000E+00  0.0000E+00
  14.071s  1.0394E+05  0.0000E+00  0.0000E+00  0.0000E+00  9.0000E+01  9.0000E+01  9.0000E+01  0.0000E+00  2.1299E-01

  rolling -1.1810E+04  1.9943E+02 -1.5237E+04 -1.5237E+04  0.0000E+00  0.0000E+00  0.0000E+00  0.0000E+00  0.0000E+00
 averages -1.1497E+04  2.0002E+02  5.1552E+02  1.5676E+04  0.0000E+00  0.0000E+00  0.0000E+00  0.0000E+00  0.0000E+00
           1.0427E+05  0.0000E+00  0.0000E+00  0.0000E+00  9.0000E+01  9.0000E+01  9.0000E+01  0.0000E+00  1.4888E-01
 ------------------------------------------------------------------------------------------------------------------------
      780 -1.1811E+04  2.0558E+02 -1.5313E+04 -1.5313E+04  0.0000E+00  0.0000E+00  0.0000E+00  0.0000E+00  0.0000E+00
   1.560p -1.1477E+04  2.0732E+02  5.7690E+02  1.5950E+04  0.0000E+00  0.0000E+00  0.0000E+00  0.0000E+00  0.0000E+00
  14.259s  1.0408E+05  0.0000E+00  0.0000E+00  0.0000E+00  9.0000E+01  9.0000E+01  9.0000E+01  0.0000E+00  1.5011E-01

  rolling -1.1810E+04  1.9973E+02 -1.5240E+04 -1.5240E+04  0.0000E+00  0.0000E+00  0.0000E+00  0.0000E+00  0.0000E+00
 averages -1.1307E+04  2.0118E+02 -5.8695E+01  1.5302E+04  0.0000E+00  0.0000E+00  0.0000E+00  0.0000E+00  0.0000E+00
           1.0416E+05  0.0000E+00  0.0000E+00  0.0000E+00  9.0000E+01  9.0000E+01  9.0000E+01  0.0000E+00  1.7866E-01
 ------------------------------------------------------------------------------------------------------------------------
      790 -1.1811E+04  2.0516E+02 -1.5316E+04 -1.5316E+04  0.0000E+00  0.0000E+00  0.0000E+00  0.0000E+00  0.0000E+00
   1.580p -1.1825E+04  2.0447E+02  1.6113E+03  1.6612E+04  0.0000E+00  0.0000E+00  0.0000E+00  0.0000E+00  0.0000E+00
  14.389s  1.0424E+05  0.0000E+00  0.0000E+00  0.0000E+00  9.0000E+01  9.0000E+01  9.0000E+01  0.0000E+00  9.6722E-02

  rolling -1.1811E+04  2.0024E+02 -1.5247E+04 -1.5247E+04  0.0000E+00  0.0000E+00  0.0000E+00  0.0000E+00  0.0000E+00
 averages -1.1200E+04  2.0229E+02 -3.7623E+02  1.5091E+04  0.0000E+00  0.0000E+00  0.0000E+00  0.0000E+00  0.0000E+00
           1.0409E+05  0.0000E+00  0.0000E+00  0.0000E+00  9.0000E+01  9.0000E+01  9.0000E+01  0.0000E+00  1.9538E-01
 ------------------------------------------------------------------------------------------------------------------------
 ------------------------------------------------------------------------------------------------------------------------

     step     eng_tot    temp_tot     eng_cfg     eng_vdw     eng_cou     eng_bnd     eng_ang     eng_dih     eng_tet
[...]
           1.0456E+05  0.0000E+00  0.0000E+00  0.0000E+00  9.0000E+01  9.0000E+01  9.0000E+01  0.0000E+00  9.9060E-02
 ------------------------------------------------------------------------------------------------------------------------
     4850 -1.1811E+04  2.0156E+02 -1.5278E+04 -1.5278E+04  0.0000E+00  0.0000E+00  0.0000E+00  0.0000E+00  0.0000E+00
   9.700p -1.2055E+04  1.9803E+02  2.2376E+03  1.7978E+04  0.0000E+00  0.0000E+00  0.0000E+00  0.0000E+00  0.0000E+00
   1.386m  1.0473E+05  0.0000E+00  0.0000E+00  0.0000E+00  9.0000E+01  9.0000E+01  9.0000E+01  0.0000E+00  6.2104E-02

  rolling -1.1811E+04  2.0136E+02 -1.5285E+04 -1.5285E+04  0.0000E+00  0.0000E+00  0.0000E+00  0.0000E+00  0.0000E+00
 averages -1.1838E+04  2.0015E+02  1.5269E+03  1.7306E+04  0.0000E+00  0.0000E+00  0.0000E+00  0.0000E+00  0.0000E+00
           1.0459E+05  0.0000E+00  0.0000E+00  0.0000E+00  9.0000E+01  9.0000E+01  9.0000E+01  0.0000E+00  9.7772E-02
 ------------------------------------------------------------------------------------------------------------------------
     4860 -1.1811E+04  1.9928E+02 -1.5251E+04 -1.5251E+04  0.0000E+00  0.0000E+00  0.0000E+00  0.0000E+00  0.0000E+00
   9.720p -1.2022E+04  1.9607E+02  2.0791E+03  1.7680E+04  0.0000E+00  0.0000E+00  0.0000E+00  0.0000E+00  0.0000E+00
   1.389m  1.0475E+05  0.0000E+00  0.0000E+00  0.0000E+00  9.0000E+01  9.0000E+01  9.0000E+01  0.0000E+00  6.8168E-02

  rolling -1.1811E+04  2.0128E+02 -1.5281E+04 -1.5281E+04  0.0000E+00  0.0000E+00  0.0000E+00  0.0000E+00  0.0000E+00
 averages -1.1836E+04  1.9989E+02  1.5312E+03  1.7376E+04  0.0000E+00  0.0000E+00  0.0000E+00  0.0000E+00  0.0000E+00
           1.0461E+05  0.0000E+00  0.0000E+00  0.0000E+00  9.0000E+01  9.0000E+01  9.0000E+01  0.0000E+00  9.7578E-02
 ------------------------------------------------------------------------------------------------------------------------
     4870 -1.1812E+04  1.9825E+02 -1.5242E+04 -1.5242E+04  0.0000E+00  0.0000E+00  0.0000E+00  0.0000E+00  0.0000E+00
   9.740p -1.1991E+04  1.9666E+02  1.9373E+03  1.7567E+04  0.0000E+00  0.0000E+00  0.0000E+00  0.0000E+00  0.0000E+00
   1.392m  1.0475E+05  0.0000E+00  0.0000E+00  0.0000E+00  9.0000E+01  9.0000E+01  9.0000E+01  0.0000E+00  7.3717E-02

  rolling -1.1811E+04  2.0101E+02 -1.5275E+04 -1.5275E+04  0.0000E+00  0.0000E+00  0.0000E+00  0.0000E+00  0.0000E+00
 averages -1.1834E+04  1.9945E+02  1.5273E+03  1.7419E+04  0.0000E+00  0.0000E+00  0.0000E+00  0.0000E+00  0.0000E+00
           1.0463E+05  0.0000E+00  0.0000E+00  0.0000E+00  9.0000E+01  9.0000E+01  9.0000E+01  0.0000E+00  9.7631E-02
 ------------------------------------------------------------------------------------------------------------------------
 ------------------------------------------------------------------------------------------------------------------------

     step     eng_tot    temp_tot     eng_cfg     eng_vdw     eng_cou     eng_bnd     eng_ang     eng_dih     eng_tet
 time          eng_pv    temp_rot     vir_cfg     vir_vdw     vir_cou     vir_bnd     vir_ang     vir_con     vir_tet
 cpu time      volume    temp_shl     eng_shl     vir_shl       alpha        beta       gamma     vir_pmf       press

 ------------------------------------------------------------------------------------------------------------------------
     4880 -1.1812E+04  1.9950E+02 -1.5262E+04 -1.5262E+04  0.0000E+00  0.0000E+00  0.0000E+00  0.0000E+00  0.0000E+00
   9.760p -1.2076E+04  1.9993E+02  2.1799E+03  1.7828E+04  0.0000E+00  0.0000E+00  0.0000E+00  0.0000E+00  0.0000E+00
   1.394m  1.0474E+05  0.0000E+00  0.0000E+00  0.0000E+00  9.0000E+01  9.0000E+01  9.0000E+01  0.0000E+00  6.0986E-02

  rolling -1.1811E+04  2.0078E+02 -1.5271E+04 -1.5271E+04  0.0000E+00  0.0000E+00  0.0000E+00  0.0000E+00  0.0000E+00
 averages -1.1845E+04  1.9919E+02  1.5604E+03  1.7478E+04  0.0000E+00  0.0000E+00  0.0000E+00  0.0000E+00  0.0000E+00
           1.0465E+05  0.0000E+00  0.0000E+00  0.0000E+00  9.0000E+01  9.0000E+01  9.0000E+01  0.0000E+00  9.5703E-02
 ------------------------------------------------------------------------------------------------------------------------
     4890 -1.1814E+04  2.0162E+02 -1.5295E+04 -1.5295E+04  0.0000E+00  0.0000E+00  0.0000E+00  0.0000E+00  0.0000E+00
   9.780p -1.2209E+04  2.0314E+02  2.5924E+03  1.8196E+04  0.0000E+00  0.0000E+00  0.0000E+00  0.0000E+00  0.0000E+00
   1.397m  1.0472E+05  0.0000E+00  0.0000E+00  0.0000E+00  9.0000E+01  9.0000E+01  9.0000E+01  0.0000E+00  4.0690E-02

  rolling -1.1811E+04  2.0076E+02 -1.5270E+04 -1.5270E+04  0.0000E+00  0.0000E+00  0.0000E+00  0.0000E+00  0.0000E+00
 averages -1.1879E+04  1.9927E+02  1.6594E+03  1.7578E+04  0.0000E+00  0.0000E+00  0.0000E+00  0.0000E+00  0.0000E+00
           1.0467E+05  0.0000E+00  0.0000E+00  0.0000E+00  9.0000E+01  9.0000E+01  9.0000E+01  0.0000E+00  9.0428E-02
 ------------------------------------------------------------------------------------------------------------------------
     4900 -1.1814E+04  2.0288E+02 -1.5317E+04 -1.5317E+04  0.0000E+00  0.0000E+00  0.0000E+00  0.0000E+00  0.0000E+00
   9.800p -1.2259E+04  2.0379E+02  2.7576E+03  1.8325E+04  0.0000E+00  0.0000E+00  0.0000E+00  0.0000E+00  0.0000E+00
   1.400m  1.0466E+05  0.0000E+00  0.0000E+00  0.0000E+00  9.0000E+01  9.0000E+01  9.0000E+01  0.0000E+00  3.3556E-02

  rolling -1.1811E+04  2.0095E+02 -1.5274E+04 -1.5274E+04  0.0000E+00  0.0000E+00  0.0000E+00  0.0000E+00  0.0000E+00
 averages -1.1935E+04  1.9963E+02  1.8269E+03  1.7715E+04  0.0000E+00  0.0000E+00  0.0000E+00  0.0000E+00  0.0000E+00
           1.0469E+05  0.0000E+00  0.0000E+00  0.0000E+00  9.0000E+01  9.0000E+01  9.0000E+01  0.0000E+00  8.1752E-02
 ------------------------------------------------------------------------------------------------------------------------
     4910 -1.1812E+04  2.0275E+02 -1.5320E+04 -1.5320E+04  0.0000E+00  0.0000E+00  0.0000E+00  0.0000E+00  0.0000E+00
   9.820p -1.2166E+04  2.0137E+02  2.4881E+03  1.8112E+04  0.0000E+00  0.0000E+00  0.0000E+00  0.0000E+00  0.0000E+00
   1.403m  1.0458E+05  0.0000E+00  0.0000E+00  0.0000E+00  9.0000E+01  9.0000E+01  9.0000E+01  0.0000E+00  4.8889E-02

  rolling -1.1811E+04  2.0125E+02 -1.5280E+04 -1.5280E+04  0.0000E+00  0.0000E+00  0.0000E+00  0.0000E+00  0.0000E+00
 averages -1.2001E+04  2.0000E+02  2.0233E+03  1.7852E+04  0.0000E+00  0.0000E+00  0.0000E+00  0.0000E+00  0.0000E+00
           1.0469E+05  0.0000E+00  0.0000E+00  0.0000E+00  9.0000E+01  9.0000E+01  9.0000E+01  0.0000E+00  7.1708E-02
 ------------------------------------------------------------------------------------------------------------------------
     4920 -1.1811E+04  2.0199E+02 -1.5318E+04 -1.5318E+04  0.0000E+00  0.0000E+00  0.0000E+00  0.0000E+00  0.0000E+00
   9.840p -1.1983E+04  1.9766E+02  1.9318E+03  1.7734E+04  0.0000E+00  0.0000E+00  0.0000E+00  0.0000E+00  0.0000E+00
   1.405m  1.0448E+05  0.0000E+00  0.0000E+00  0.0000E+00  9.0000E+01  9.0000E+01  9.0000E+01  0.0000E+00  7.9087E-02

  rolling -1.1812E+04  2.0141E+02 -1.5285E+04 -1.5285E+04  0.0000E+00  0.0000E+00  0.0000E+00  0.0000E+00  0.0000E+00
 averages -1.2049E+04  1.9999E+02  2.1613E+03  1.7928E+04  0.0000E+00  0.0000E+00  0.0000E+00  0.0000E+00  0.0000E+00
           1.0469E+05  0.0000E+00  0.0000E+00  0.0000E+00  9.0000E+01  9.0000E+01  9.0000E+01  0.0000E+00  6.4742E-02
 ------------------------------------------------------------------------------------------------------------------------
     4930 -1.1811E+04  2.0086E+02 -1.5314E+04 -1.5314E+04  0.0000E+00  0.0000E+00  0.0000E+00  0.0000E+00  0.0000E+00
   9.860p -1.1750E+04  1.9406E+02  1.2105E+03  1.7290E+04  0.0000E+00  0.0000E+00  0.0000E+00  0.0000E+00  0.0000E+00
   1.408m  1.0438E+05  0.0000E+00  0.0000E+00  0.0000E+00  9.0000E+01  9.0000E+01  9.0000E+01  0.0000E+00  1.1738E-01

  rolling -1.1812E+04  2.0130E+02 -1.5288E+04 -1.5288E+04  0.0000E+00  0.0000E+00  0.0000E+00  0.0000E+00  0.0000E+00
 averages -1.2057E+04  1.9946E+02  2.1775E+03  1.7912E+04  0.0000E+00  0.0000E+00  0.0000E+00  0.0000E+00  0.0000E+00
           1.0466E+05  0.0000E+00  0.0000E+00  0.0000E+00  9.0000E+01  9.0000E+01  9.0000E+01  0.0000E+00  6.4067E-02
 ------------------------------------------------------------------------------------------------------------------------
     4940 -1.1810E+04  1.9954E+02 -1.5307E+04 -1.5307E+04  0.0000E+00  0.0000E+00  0.0000E+00  0.0000E+00  0.0000E+00
   9.880p -1.1538E+04  1.9127E+02  5.3108E+02  1.6853E+04  0.0000E+00  0.0000E+00  0.0000E+00  0.0000E+00  0.0000E+00
   1.412m  1.0428E+05  0.0000E+00  0.0000E+00  0.0000E+00  9.0000E+01  9.0000E+01  9.0000E+01  0.0000E+00  1.5279E-01

  rolling -1.1812E+04  2.0099E+02 -1.5290E+04 -1.5290E+04  0.0000E+00  0.0000E+00  0.0000E+00  0.0000E+00  0.0000E+00
 averages -1.2027E+04  1.9861E+02  2.0710E+03  1.7815E+04  0.0000E+00  0.0000E+00  0.0000E+00  0.0000E+00  0.0000E+00
           1.0463E+05  0.0000E+00  0.0000E+00  0.0000E+00  9.0000E+01  9.0000E+01  9.0000E+01  0.0000E+00  6.9720E-02
 ------------------------------------------------------------------------------------------------------------------------
     4950 -1.1810E+04  1.9807E+02 -1.5297E+04 -1.5297E+04  0.0000E+00  0.0000E+00  0.0000E+00  0.0000E+00  0.0000E+00
   9.900p -1.1411E+04  1.8960E+02  9.5119E+01  1.6458E+04  0.0000E+00  0.0000E+00  0.0000E+00  0.0000E+00  0.0000E+00
   1.415m  1.0420E+05  0.0000E+00  0.0000E+00  0.0000E+00  9.0000E+01  9.0000E+01  9.0000E+01  0.0000E+00  1.7456E-01

  rolling -1.1812E+04  2.0063E+02 -1.5291E+04 -1.5291E+04  0.0000E+00  0.0000E+00  0.0000E+00  0.0000E+00  0.0000E+00
 averages -1.1970E+04  1.9772E+02  1.8790E+03  1.7674E+04  0.0000E+00  0.0000E+00  0.0000E+00  0.0000E+00  0.0000E+00
           1.0458E+05  0.0000E+00  0.0000E+00  0.0000E+00  9.0000E+01  9.0000E+01  9.0000E+01  0.0000E+00  7.9803E-02
 ------------------------------------------------------------------------------------------------------------------------
 ------------------------------------------------------------------------------------------------------------------------

     step     eng_tot    temp_tot     eng_cfg     eng_vdw     eng_cou     eng_bnd     eng_ang     eng_dih     eng_tet
 time          eng_pv    temp_rot     vir_cfg     vir_vdw     vir_cou     vir_bnd     vir_ang     vir_con     vir_tet
 cpu time      volume    temp_shl     eng_shl     vir_shl       alpha        beta       gamma     vir_pmf       press

 ------------------------------------------------------------------------------------------------------------------------
     4960 -1.1810E+04  1.9673E+02 -1.5288E+04 -1.5288E+04  0.0000E+00  0.0000E+00  0.0000E+00  0.0000E+00  0.0000E+00
   9.920p -1.1437E+04  1.8997E+02  1.0499E+02  1.6183E+04  0.0000E+00  0.0000E+00  0.0000E+00  0.0000E+00  0.0000E+00
   1.417m  1.0416E+05  0.0000E+00  0.0000E+00  0.0000E+00  9.0000E+01  9.0000E+01  9.0000E+01  0.0000E+00  1.7193E-01

  rolling -1.1812E+04  2.0032E+02 -1.5294E+04 -1.5294E+04  0.0000E+00  0.0000E+00  0.0000E+00  0.0000E+00  0.0000E+00
 averages -1.1907E+04  1.9699E+02  1.6676E+03  1.7521E+04  0.0000E+00  0.0000E+00  0.0000E+00  0.0000E+00  0.0000E+00
           1.0452E+05  0.0000E+00  0.0000E+00  0.0000E+00  9.0000E+01  9.0000E+01  9.0000E+01  0.0000E+00  9.0907E-02
 ------------------------------------------------------------------------------------------------------------------------
     4970 -1.1810E+04  1.9683E+02 -1.5295E+04 -1.5295E+04  0.0000E+00  0.0000E+00  0.0000E+00  0.0000E+00  0.0000E+00
   9.940p -1.1652E+04  1.9376E+02  6.9163E+02  1.6251E+04  0.0000E+00  0.0000E+00  0.0000E+00  0.0000E+00  0.0000E+00
   1.420m  1.0415E+05  0.0000E+00  0.0000E+00  0.0000E+00  9.0000E+01  9.0000E+01  9.0000E+01  0.0000E+00  1.3910E-01

  rolling -1.1812E+04  2.0013E+02 -1.5299E+04 -1.5299E+04  0.0000E+00  0.0000E+00  0.0000E+00  0.0000E+00  0.0000E+00
 averages -1.1861E+04  1.9656E+02  1.5082E+03  1.7381E+04  0.0000E+00  0.0000E+00  0.0000E+00  0.0000E+00  0.0000E+00
           1.0446E+05  0.0000E+00  0.0000E+00  0.0000E+00  9.0000E+01  9.0000E+01  9.0000E+01  0.0000E+00  9.9283E-02
 ------------------------------------------------------------------------------------------------------------------------
     4980 -1.1810E+04  1.9867E+02 -1.5324E+04 -1.5324E+04  0.0000E+00  0.0000E+00  0.0000E+00  0.0000E+00  0.0000E+00
   9.960p -1.1959E+04  1.9988E+02  1.5847E+03  1.6681E+04  0.0000E+00  0.0000E+00  0.0000E+00  0.0000E+00  0.0000E+00
   1.423m  1.0414E+05  0.0000E+00  0.0000E+00  0.0000E+00  9.0000E+01  9.0000E+01  9.0000E+01  0.0000E+00  9.1360E-02

  rolling -1.1811E+04  2.0003E+02 -1.5305E+04 -1.5305E+04  0.0000E+00  0.0000E+00  0.0000E+00  0.0000E+00  0.0000E+00
 averages -1.1840E+04  1.9643E+02  1.4220E+03  1.7259E+04  0.0000E+00  0.0000E+00  0.0000E+00  0.0000E+00  0.0000E+00
           1.0440E+05  0.0000E+00  0.0000E+00  0.0000E+00  9.0000E+01  9.0000E+01  9.0000E+01  0.0000E+00  1.0377E-01
 ------------------------------------------------------------------------------------------------------------------------
     4990 -1.1809E+04  2.0099E+02 -1.5358E+04 -1.5358E+04  0.0000E+00  0.0000E+00  0.0000E+00  0.0000E+00  0.0000E+00
   9.980p -1.2205E+04  2.0539E+02  2.3253E+03  1.7173E+04  0.0000E+00  0.0000E+00  0.0000E+00  0.0000E+00  0.0000E+00
   1.426m  1.0414E+05  0.0000E+00  0.0000E+00  0.0000E+00  9.0000E+01  9.0000E+01  9.0000E+01  0.0000E+00  5.2687E-02

  rolling -1.1811E+04  1.9996E+02 -1.5311E+04 -1.5311E+04  0.0000E+00  0.0000E+00  0.0000E+00  0.0000E+00  0.0000E+00
 averages -1.1836E+04  1.9656E+02  1.3826E+03  1.7151E+04  0.0000E+00  0.0000E+00  0.0000E+00  0.0000E+00  0.0000E+00
           1.0434E+05  0.0000E+00  0.0000E+00  0.0000E+00  9.0000E+01  9.0000E+01  9.0000E+01  0.0000E+00  1.0568E-01
 ------------------------------------------------------------------------------------------------------------------------
     5000 -1.1809E+04  2.0268E+02 -1.5384E+04 -1.5384E+04  0.0000E+00  0.0000E+00  0.0000E+00  0.0000E+00  0.0000E+00
  10.000p -1.2341E+04  2.0817E+02  2.7390E+03  1.7484E+04  0.0000E+00  0.0000E+00  0.0000E+00  0.0000E+00  0.0000E+00
   1.428m  1.0411E+05  0.0000E+00  0.0000E+00  0.0000E+00  9.0000E+01  9.0000E+01  9.0000E+01  0.0000E+00  3.1843E-02

  rolling -1.1810E+04  1.9991E+02 -1.5317E+04 -1.5317E+04  0.0000E+00  0.0000E+00  0.0000E+00  0.0000E+00  0.0000E+00
 averages -1.1840E+04  1.9690E+02  1.3685E+03  1.7058E+04  0.0000E+00  0.0000E+00  0.0000E+00  0.0000E+00  0.0000E+00
           1.0429E+05  0.0000E+00  0.0000E+00  0.0000E+00  9.0000E+01  9.0000E+01  9.0000E+01  0.0000E+00  1.0617E-01
 ------------------------------------------------------------------------------------------------------------------------


 run terminating. elapsed cpu time =   8.56820E+01, job time =   1.000h, close time =  100.00s



 run terminated after    5000 steps. final averages calculated over    4900 steps.


 ------------------------------------------------------------------------------------------------------------------------

     step     eng_tot    temp_tot     eng_cfg     eng_vdw     eng_cou     eng_bnd     eng_ang     eng_dih     eng_tet
 time          eng_pv    temp_rot     vir_cfg     vir_vdw     vir_cou     vir_bnd     vir_ang     vir_con     vir_tet
 cpu time      volume    temp_shl     eng_shl     vir_shl       alpha        beta       gamma     vir_pmf       press

 ------------------------------------------------------------------------------------------------------------------------
     5000 -1.1811E+04  2.0005E+02 -1.5279E+04 -1.5279E+04  0.0000E+00  0.0000E+00  0.0000E+00  0.0000E+00  0.0000E+00
  10.000p -1.1843E+04  2.0120E+02  1.4574E+03  1.6334E+04  0.0000E+00  0.0000E+00  0.0000E+00  0.0000E+00  0.0000E+00
   1.430m  1.0450E+05  0.0000E+00  0.0000E+00  0.0000E+00  9.0000E+01  9.0000E+01  9.0000E+01  0.0000E+00  9.9167E-02

  r.m.s.   2.2327E+00  4.2343E+00  7.8881E+01  7.8881E+01  0.0000E+00  0.0000E+00  0.0000E+00  0.0000E+00  0.0000E+00
 fluctn.   5.1676E+02  6.4406E+00  1.5642E+03  1.1086E+03  0.0000E+00  0.0000E+00  0.0000E+00  0.0000E+00  0.0000E+00
           4.4459E+02  0.0000E+00  0.0000E+00  0.0000E+00  1.4532E-13  1.4532E-13  1.4532E-13  0.0000E+00  8.1153E-02
 ------------------------------------------------------------------------------------------------------------------------


            Approximate 3D Diffusion  coefficients (10^-9 m^2 / s)

            atom        D 
            C_3        3.5475E+00
            C_1        2.7244E+00


                Average pressure tensor                                       r.m.s. fluctuations 

           7.3318E-02 -1.2037E-02 -9.2197E-03                          1.1947E-01  8.2283E-02  8.0494E-02
          -1.2037E-02  1.2648E-01  4.4693E-04                          8.2283E-02  1.1514E-01  7.8344E-02
          -9.2197E-03  4.4693E-04  9.7702E-02                          8.0494E-02  7.8344E-02  1.2073E-01

            trace/3.   9.9167E-02


                 Average cell vectors                                         r.m.s. fluctuations 

       47.1014756795        0.0000000000        0.0000000000           6.6795E-02  0.0000E+00  0.0000E+00
        0.0000000000       47.1014756795        0.0000000000           0.0000E+00  6.6795E-02  0.0000E+00
        0.0000000000        0.0000000000       47.1014756895           0.0000E+00  0.0000E+00  6.6795E-02


 sample of final configuration

      i       x(i)        y(i)        z(i)       vx(i)       vy(i)       vz(i)       fx(i)       fy(i)       fz(i)


      1 -4.0191E+00 -3.5270E+00 -1.2155E+01 -1.3036E+00 -1.8122E+00  1.1452E+00  4.0135E+02  3.4109E+01  2.0895E+02
    204 -2.0920E+01  1.5527E+01  4.1804E+00  1.4563E+00 -3.7009E+00  4.0464E+00  4.2219E+01  1.2858E+02  4.7749E+01
    407 -5.8834E+00  1.9336E+01 -1.6101E+01  1.4005E+00 -3.2828E-01 -7.1254E-01 -1.0170E+02 -1.0880E+01  1.1607E+01
    610  9.6579E+00  1.0749E+01 -8.9879E+00 -6.0439E-01  1.1375E+00 -3.0628E-01  8.3626E+01  1.0611E+02 -1.5434E+02
    813 -8.1007E+00  1.6035E+01 -1.4672E+01  1.3283E+00  7.5571E-01 -4.1749E-01  2.7229E+01  3.3787E+01  4.0056E+01
   1016 -1.9913E+01 -6.3765E+00 -1.9669E+01  2.2763E+00 -3.4500E-01 -1.6780E+00  5.7374E+01  5.6708E+02  2.0997E+02
   1219  5.0020E+00  2.3361E+00 -2.2332E+01  1.9895E+00 -2.3972E+00  5.7899E+00  8.9521E+02 -4.1444E+02 -1.2540E+03
   1422  9.7429E+00  7.1019E+00  8.2982E+00 -1.2776E+00 -5.2765E-01  2.8856E+00 -5.2313E+02  1.2419E+02 -1.8312E+02
   1625  1.0626E+01 -2.1344E+01 -6.4018E+00 -1.2088E+00 -9.4801E-01  4.3031E+00 -1.2553E+02 -2.0936E+02 -1.6462E+02
   1828  2.0778E+01  1.1494E+00 -1.7021E+01 -9.2448E-01 -6.7335E-01  3.1227E-01 -1.7058E+02  4.5295E+02  5.5261E+02
   2031  1.2619E+01 -4.3116E+00 -2.1571E+00  6.6271E-01  2.6465E+00 -1.1474E+00  5.1871E+02  4.2131E+01 -9.1050E+01
   2234  1.3099E+01  2.0043E+01  7.4478E+00  8.9033E-01  1.8846E-01  5.5809E-01 -1.7629E+01 -2.7533E+02 -4.4640E+02
   2437  8.7395E+00  2.0239E+01  3.8372E+00 -1.0475E+00 -2.4400E-01  3.6545E+00  1.1883E+02 -1.8206E+02  3.6419E+02
   2640  1.9626E+01 -1.7615E+01  1.7777E+01  1.7115E+00 -2.2877E-01 -6.3524E-01 -2.9334E+02 -5.9255E+01  3.8867E+01
   2843 -6.2750E-01  1.6642E+01 -4.2679E+00  1.5650E+00  9.1744E-01 -1.6508E+00  6.4531E+01 -1.1044E+02 -3.0085E+01
   3046 -7.7238E+00 -1.2413E+01  1.6796E+01  1.1469E-01 -8.0708E-01 -1.1387E+00 -1.1616E+02  1.2830E+02 -1.4050E+02
   3249  2.2224E+01  6.5179E+00  9.1299E+00  1.9923E+00 -1.7077E+00  1.6690E+00 -2.3868E+02  7.4943E+01 -3.6716E+01
   3452 -9.7717E+00  2.1179E+01  2.3304E+01 -1.5012E+00 -4.7670E-01 -3.2192E-02 -1.2131E+02  2.3537E+02  3.9551E+01
   3655 -1.9800E+01 -1.4268E+01  1.4823E+01  2.9538E+00  3.1653E-01  2.5112E+00  1.8019E+02  6.3223E+01 -1.4315E+03
   3858 -5.2937E-02  4.1300E+00 -2.3021E+01  2.4276E-01  7.1040E-01  2.9485E-01 -1.1877E+02 -9.5273E+00 -1.1216E+02

 time elapsed since job start =          85.795 seconds

