
                    DL_POLY Classic 1.2

                              Running on    8 nodes


 ************************************************************************************************************************
 ************************************************************************************************************************
 ************************************************************************************************************************
 ***************     DL_POLY TEST CASE 4: Adiabatic Dynamical Shell Model of Water                        ***************
 ************************************************************************************************************************
 ************************************************************************************************************************
 ************************************************************************************************************************


 SIMULATION CONTROL PARAMETERS


 velocity verlet integration selected

 simulation temperature           2.0000E+02

 simulation pressure (katm)       0.0000E+00

 Berendsen thermostat
 thermostat relaxation time       5.0000E-01

 selected number of timesteps          500

 equilibration period                  100

 multiple timestep interval              4

 temperature scaling on
 temperature scaling interval           10

 equilibration included in overall averages

 data printing interval                  5

 data stacking interval                100

 statistics file interval                5


 radial distribution functions on 
 g(r) collection interval                1
 g(r) bin width                   5.0000E-02

 simulation timestep              5.0000E-04

 primary neighbour cut off        7.6000E+00

 real space cut off               9.6000E+00

 border width of Verlet shell     1.2000E+00

 real space cut off (vdw)         8.0000E+00


 Electrostatics : reaction field


 relative dielectric constant     7.8000E+01

 force capping :                  1.0000E+04 kT/A

 tolerance for SHAKE              1.0000E-05

 tolerance for Quaternions        1.0000E-05


 Z density profile requested
 zdensity collection interval           10
 zdensity bin width               1.0000E-01
 zdensity range                   2.9000E+01

 g(r) printing option on      

 user allocated job time (m)     15.0000

 job closure time        (s)      20.000


SYSTEM SPECIFICATION

 energy units=kjoule/mol 

 neutral group implementation in use


 number of molecular types               1

 molecular species type                  1


 name of species:             spc water                               

 number of molecules                   256

 number of atoms/sites                   4


 atomic characteristics:

                      site     name          mass        charge    repeat    freeze   chg grp
                         1     OW          15.00000    -0.32000         1         0         1
                         2     HW           1.00000     0.41000         2         0         1
                         4     O_shell      1.00000    -0.50000         1         0         1

 number of core-shell units              1


 core-shell details:

                          index     index      parameter
                              1         4       100.0000         0.0000

 number of rigid units                   1

 rigid body details:

                           unit   indices

                              1         1         2         3


 number of specified pair potentials         5


                atom 1  atom 2      key                              parameters


                O_shell O_shell   lj       3.68540E-01  3.16500E+00
                O_shell OW        lj       2.10590E-01  3.16500E+00
                OW      OW        lj       5.26500E-02  3.16500E+00
                OW      HW        lj       0.00000E+00  3.16500E+00
                O_shell HW        lj       0.00000E+00  3.16500E+00

  *** warning - undefined atom-atom interactions set to zero ***


adiabatic shell model in operation

 configuration file name: 

          DL_POLY TEST CASE 4: Dynamical Shell model water structure                      


 selected image convention               6


 simulation cell vectors


                        19.246204    0.000000    0.000000
                         0.000000   19.246204    0.000000
                         0.000000    0.000000   29.246204


 system volume            10833.2725653    


             summary of rigid body set up

 group of type          1
             total mass           17.0000000000
             rot. inertia          1.9215469014        1.3331485503        0.5883983511

             site        a coord        b coord        c coord
                1    0.00000E+00   -6.79330E-02   -0.00000E+00
                2    0.00000E+00    5.09497E-01    8.16440E-01
                3    0.00000E+00    5.09497E-01   -8.16440E-01


 total degrees of freedom                      1530.
 rotational degrees of freedom                  765.
 shell pseudo degrees of freedom                768.


 sample of starting configuration

      i       x(i)        y(i)        z(i)       vx(i)       vy(i)       vz(i)       fx(i)       fy(i)       fz(i)


      1  6.5979E+00 -5.1578E+00 -7.7738E+00  6.0370E+00 -2.7103E+00 -3.8483E+00 -2.4285E+02  5.9301E+02  8.9965E+01
     53 -8.3911E+00  8.7159E+00 -8.4160E+00 -1.3922E-01  4.9155E+00  2.5645E+00  9.5366E+02  9.3302E+02 -2.7706E+02
    105 -5.8034E+00  1.6694E+00  8.9756E+00 -5.7234E+00 -2.3472E+00 -6.5878E-01  4.9739E+02 -4.3555E+02  1.5332E+02
    157  1.3778E+00 -4.2204E+00  2.5719E+00 -1.0532E+00 -1.8711E+00  1.1087E+00  3.2027E+03 -1.6402E+03  4.2647E+01
    209  7.5615E+00  1.1184E+00  6.5238E+00  2.3490E+00  2.8447E+00  4.8359E+00 -3.4639E+02  2.3576E+03  1.5813E+03
    261  2.3999E+00  1.8743E+00 -4.4751E+00 -1.3304E+00  1.2158E+00  2.1901E-01  1.0958E+03 -1.3376E+03  1.0932E+02
    313  1.2214E+00 -5.7388E+00  3.8764E-01 -2.3269E+00 -1.9904E+00 -2.5632E+00  4.7207E+02 -1.3204E+03 -1.7011E+03
    365  9.3290E+00  3.3720E+00  2.8439E+00  1.6136E+00 -1.2168E+00  1.5402E+00  2.3448E+02  3.3218E+02 -1.3902E+03
    417  5.4530E+00 -2.5303E-01  2.6471E+00 -3.7031E+00 -3.5224E+00 -2.0889E+00  5.8084E+03 -3.2145E+03  3.9733E+02
    469 -4.1637E+00  4.7988E+00  4.6878E+00 -3.5665E+00 -2.8055E+00 -6.8986E-01 -7.1556E+02 -1.9296E+02 -1.5436E+03
    521  1.8931E-01 -7.0628E-02  6.0388E+00 -2.6627E+00  1.5342E+00 -5.2760E+00  1.8581E+02 -1.8205E+03 -9.7168E+02
    573 -1.2508E+00  4.9497E-02 -6.4848E+00 -3.4630E+00 -1.8834E+00 -1.3952E-01 -2.8964E+03  2.4806E+03  2.6530E+02
    625 -1.6867E+00 -7.7057E+00  6.7952E+00 -7.0752E+00  3.1723E+00  2.1183E+00 -2.1176E+03 -7.6130E+02  1.6023E+03
    677 -1.0167E+00  2.1299E+00  6.9538E+00 -5.5519E+00 -8.3348E-01 -3.4401E+00 -3.2804E+03  8.5945E+02  3.8082E+02
    729  8.6858E+00 -6.7426E+00  8.7529E-01  2.7489E+00  3.0209E+00 -9.9724E-01  1.5673E+03  1.5395E+03  3.6810E+03
    781  2.8836E+00 -6.2808E+00 -7.9564E+00 -4.4771E+00  2.6861E+00 -3.6208E+00 -8.4722E+02 -8.6393E+02  1.2415E+02
    833  3.1602E+00  9.4798E+00  4.9543E+00 -1.4754E+00 -8.7445E-01  2.7606E+00  2.1783E+03 -2.9230E+03 -1.1453E+02
    885  8.3154E-01  2.2404E-01  3.2293E+00  4.1335E+00 -3.4545E-01 -3.2601E-01 -7.1881E+02  9.7762E+02  9.2362E+02
    937 -6.3800E+00  1.8268E+00 -5.4307E+00 -9.5994E-01 -2.1917E+00 -2.1325E+00  5.4111E+02  4.7565E+01  2.0928E+03
    989  2.3032E+00 -7.3858E+00  5.6418E+00  2.4898E+00  4.6943E-01 -7.9855E-01 -1.0003E+03  2.4239E+03  1.6052E+03


long range correction for: vdw energy     0.000000E+00
                         : vdw pressure  -0.000000E+00

 time elapsed since job start =           0.384 seconds

 ------------------------------------------------------------------------------------------------------------------------

     step     eng_tot    temp_tot     eng_cfg     eng_vdw     eng_cou     eng_bnd     eng_ang     eng_dih     eng_tet
 time          eng_pv    temp_rot     vir_cfg     vir_vdw     vir_cou     vir_bnd     vir_ang     vir_con     vir_tet
 cpu time      volume    temp_shl     eng_shl     vir_shl       alpha        beta       gamma     vir_pmf       press

 ------------------------------------------------------------------------------------------------------------------------
        1 -7.7689E+03  2.0481E+02 -9.0716E+03  3.0959E+03 -1.2170E+04  0.0000E+00  0.0000E+00  0.0000E+00  0.0000E+00
   0.500f  3.4777E+02  1.9635E+02 -2.2993E+04 -6.7047E+04  1.2127E+04  0.0000E+00  0.0000E+00  0.0000E+00  0.0000E+00
   0.421s  1.0833E+04  8.4905E+00  2.9168E+00  5.8336E+00  9.0000E+01  9.0000E+01  9.0000E+01  0.0000E+00  1.2279E+01

  rolling -7.7689E+03  2.0481E+02 -9.0716E+03  3.0959E+03 -1.2170E+04  0.0000E+00  0.0000E+00  0.0000E+00  0.0000E+00
 averages  3.4777E+02  1.9635E+02 -2.2993E+04 -6.7047E+04  1.2127E+04  0.0000E+00  0.0000E+00  0.0000E+00  0.0000E+00
           1.0833E+04  8.4905E+00  2.9168E+00  5.8336E+00  9.0000E+01  9.0000E+01  9.0000E+01  0.0000E+00  1.2279E+01
 ------------------------------------------------------------------------------------------------------------------------
        5 -7.7709E+03  3.0733E+02 -9.7257E+03  2.9217E+03 -1.2667E+04  0.0000E+00  0.0000E+00  0.0000E+00  0.0000E+00
   2.500f -4.6536E+02  2.0854E+02 -1.9334E+04 -6.4761E+04  1.2620E+04  0.0000E+00  0.0000E+00  0.0000E+00  0.0000E+00
   0.475s  1.0833E+04  1.9780E+02  1.9839E+01  3.9677E+01  9.0000E+01  9.0000E+01  9.0000E+01  0.0000E+00  1.1052E+01

  rolling -7.7692E+03  2.4843E+02 -9.3494E+03  3.0201E+03 -1.2378E+04  0.0000E+00  0.0000E+00  0.0000E+00  0.0000E+00
 averages -2.1781E+00  2.0184E+02 -2.1425E+04 -6.6053E+04  1.2333E+04  0.0000E+00  0.0000E+00  0.0000E+00  0.0000E+00
           1.0833E+04  8.8866E+01  8.8664E+00  1.7733E+01  9.0000E+01  9.0000E+01  9.0000E+01  0.0000E+00  1.1750E+01
 ------------------------------------------------------------------------------------------------------------------------
       10 -7.7809E+03  5.5366E+02 -1.1303E+04  2.6937E+03 -1.4180E+04  0.0000E+00  0.0000E+00  0.0000E+00  0.0000E+00
   5.000f -1.9563E+03  2.3466E+02 -1.1923E+04 -6.1665E+04  1.4126E+04  0.0000E+00  0.0000E+00  0.0000E+00  0.0000E+00
   0.550s  1.0833E+04  6.5588E+02  1.8402E+02  3.6805E+02  9.0000E+01  9.0000E+01  9.0000E+01  0.0000E+00  8.8113E+00

  rolling -7.7726E+03  3.4885E+02 -9.9916E+03  2.8927E+03 -1.2937E+04  0.0000E+00  0.0000E+00  0.0000E+00  0.0000E+00
 averages -6.9256E+02  2.1267E+02 -1.8155E+04 -6.4356E+04  1.2889E+04  0.0000E+00  0.0000E+00  0.0000E+00  0.0000E+00
           1.0833E+04  2.7526E+02  5.3141E+01  1.0628E+02  9.0000E+01  9.0000E+01  9.0000E+01  0.0000E+00  1.0711E+01
 ------------------------------------------------------------------------------------------------------------------------
       15 -1.0032E+04  2.7197E+02 -1.1762E+04  2.7055E+03 -1.4717E+04  0.0000E+00  0.0000E+00  0.0000E+00  0.0000E+00
   7.500f -5.9408E+03  2.4730E+02 -1.0388E+04 -6.1773E+04  1.4667E+04  0.0000E+00  0.0000E+00  0.0000E+00  0.0000E+00
   0.616s  1.0833E+04  1.0653E+02  2.4939E+02  4.9878E+02  9.0000E+01  9.0000E+01  9.0000E+01  0.0000E+00  6.1897E+00

  rolling -8.5256E+03  3.1083E+02 -1.0503E+04  2.8268E+03 -1.3436E+04  0.0000E+00  0.0000E+00  0.0000E+00  0.0000E+00
 averages -2.4012E+03  2.1964E+02 -1.5816E+04 -6.3459E+04  1.3386E+04  0.0000E+00  0.0000E+00  0.0000E+00  0.0000E+00
           1.0833E+04  1.9934E+02  1.0619E+02  2.1238E+02  9.0000E+01  9.0000E+01  9.0000E+01  0.0000E+00  9.2648E+00
 ------------------------------------------------------------------------------------------------------------------------
       20 -1.0040E+04  4.2923E+02 -1.2770E+04  2.8571E+03 -1.6127E+04  0.0000E+00  0.0000E+00  0.0000E+00  0.0000E+00
  10.000f -6.1375E+03  2.7913E+02 -8.0212E+03 -6.3613E+04  1.6079E+04  0.0000E+00  0.0000E+00  0.0000E+00  0.0000E+00
   0.693s  1.0833E+04  3.8403E+02  5.0049E+02  1.0010E+03  9.0000E+01  9.0000E+01  9.0000E+01  0.0000E+00  5.9029E+00

  rolling -8.9032E+03  3.2349E+02 -1.0961E+04  2.8147E+03 -1.3950E+04  0.0000E+00  0.0000E+00  0.0000E+00  0.0000E+00
 averages -3.3222E+03  2.3145E+02 -1.4100E+04 -6.3257E+04  1.3901E+04  0.0000E+00  0.0000E+00  0.0000E+00  0.0000E+00
           1.0833E+04  2.1523E+02  1.7473E+02  3.4945E+02  9.0000E+01  9.0000E+01  9.0000E+01  0.0000E+00  8.4427E+00
 ------------------------------------------------------------------------------------------------------------------------
       25 -1.1499E+04  2.5125E+02 -1.3098E+04  2.9112E+03 -1.6595E+04  0.0000E+00  0.0000E+00  0.0000E+00  0.0000E+00
  12.500f -8.5840E+03  2.6338E+02 -7.2255E+03 -6.4273E+04  1.6553E+04  0.0000E+00  0.0000E+00  0.0000E+00  0.0000E+00
   0.760s  1.0833E+04  7.3058E+01  5.8620E+02  1.1724E+03  9.0000E+01  9.0000E+01  9.0000E+01  0.0000E+00  4.4104E+00

  rolling -9.4222E+03  3.0385E+02 -1.1355E+04  2.8272E+03 -1.4429E+04  0.0000E+00  0.0000E+00  0.0000E+00  0.0000E+00
 averages -4.3693E+03  2.3589E+02 -1.2794E+04 -6.3376E+04  1.4381E+04  0.0000E+00  0.0000E+00  0.0000E+00  0.0000E+00
           1.0833E+04  1.7870E+02  2.4739E+02  4.9478E+02  9.0000E+01  9.0000E+01  9.0000E+01  0.0000E+00  7.6438E+00
 ------------------------------------------------------------------------------------------------------------------------
       30 -1.1503E+04  3.5961E+02 -1.3790E+04  3.1578E+03 -1.7824E+04  0.0000E+00  0.0000E+00  0.0000E+00  0.0000E+00
  15.000f -8.3837E+03  2.8238E+02 -6.5798E+03 -6.7355E+04  1.7784E+04  0.0000E+00  0.0000E+00  0.0000E+00  0.0000E+00
   0.835s  1.0833E+04  2.6457E+02  8.7541E+02  1.7508E+03  9.0000E+01  9.0000E+01  9.0000E+01  0.0000E+00  4.7190E+00

  rolling -9.7687E+03  3.0536E+02 -1.1711E+04  2.8626E+03 -1.4903E+04  0.0000E+00  0.0000E+00  0.0000E+00  0.0000E+00
 averages -5.0576E+03  2.4246E+02 -1.1791E+04 -6.3793E+04  1.4856E+04  0.0000E+00  0.0000E+00  0.0000E+00  0.0000E+00
           1.0833E+04  1.7907E+02  3.2957E+02  6.5914E+02  9.0000E+01  9.0000E+01  9.0000E+01  0.0000E+00  7.1268E+00
 ------------------------------------------------------------------------------------------------------------------------
       35 -1.2519E+04  2.3669E+02 -1.4024E+04  3.2208E+03 -1.8212E+04  0.0000E+00  0.0000E+00  0.0000E+00  0.0000E+00
  17.500f -1.0025E+04  2.6592E+02 -6.1627E+03 -6.8136E+04  1.8175E+04  0.0000E+00  0.0000E+00  0.0000E+00  0.0000E+00
   0.902s  1.0833E+04  5.0983E+01  9.6724E+02  1.9345E+03  9.0000E+01  9.0000E+01  9.0000E+01  0.0000E+00  3.7729E+00

  rolling -1.0162E+04  2.9289E+02 -1.2025E+04  2.9082E+03 -1.5346E+04  0.0000E+00  0.0000E+00  0.0000E+00  0.0000E+00
 averages -5.7694E+03  2.4493E+02 -1.1009E+04 -6.4344E+04  1.5301E+04  0.0000E+00  0.0000E+00  0.0000E+00  0.0000E+00
           1.0833E+04  1.5673E+02  4.1333E+02  8.2666E+02  9.0000E+01  9.0000E+01  9.0000E+01  0.0000E+00  6.6444E+00
 ------------------------------------------------------------------------------------------------------------------------
 ------------------------------------------------------------------------------------------------------------------------

     step     eng_tot    temp_tot     eng_cfg     eng_vdw     eng_cou     eng_bnd     eng_ang     eng_dih     eng_tet
 time          eng_pv    temp_rot     vir_cfg     vir_vdw     vir_cou     vir_bnd     vir_ang     vir_con     vir_tet
 cpu time      volume    temp_shl     eng_shl     vir_shl       alpha        beta       gamma     vir_pmf       press

 ------------------------------------------------------------------------------------------------------------------------
       40 -1.2519E+04  3.1546E+02 -1.4525E+04  3.4827E+03 -1.9268E+04  0.0000E+00  0.0000E+00  0.0000E+00  0.0000E+00
  20.000f -9.7059E+03  2.8019E+02 -6.2078E+03 -7.1426E+04  1.9228E+04  0.0000E+00  0.0000E+00  0.0000E+00  0.0000E+00
   0.983s  1.0833E+04  1.8494E+02  1.2598E+03  2.5197E+03  9.0000E+01  9.0000E+01  9.0000E+01  0.0000E+00  4.2552E+00

  rolling -1.0456E+04  2.9146E+02 -1.2310E+04  2.9646E+03 -1.5777E+04  0.0000E+00  0.0000E+00  0.0000E+00  0.0000E+00
 averages -6.2816E+03  2.4865E+02 -1.0398E+04 -6.5036E+04  1.5733E+04  0.0000E+00  0.0000E+00  0.0000E+00  0.0000E+00
           1.0833E+04  1.5294E+02  5.0229E+02  1.0046E+03  9.0000E+01  9.0000E+01  9.0000E+01  0.0000E+00  6.3152E+00
 ------------------------------------------------------------------------------------------------------------------------
       45 -1.3255E+04  2.2950E+02 -1.4715E+04  3.5398E+03 -1.9604E+04  0.0000E+00  0.0000E+00  0.0000E+00  0.0000E+00
  22.500f -1.0881E+04  2.6563E+02 -5.8925E+03 -7.2133E+04  1.9558E+04  0.0000E+00  0.0000E+00  0.0000E+00  0.0000E+00
   1.050s  1.0833E+04  3.6562E+01  1.3494E+03  2.6988E+03  9.0000E+01  9.0000E+01  9.0000E+01  0.0000E+00  3.5916E+00

  rolling -1.0767E+04  2.8295E+02 -1.2567E+04  3.0245E+03 -1.6182E+04  0.0000E+00  0.0000E+00  0.0000E+00  0.0000E+00
 averages -6.7949E+03  2.5000E+02 -9.9073E+03 -6.5774E+04  1.6138E+04  0.0000E+00  0.0000E+00  0.0000E+00  0.0000E+00
           1.0833E+04  1.3776E+02  5.9086E+02  1.1817E+03  9.0000E+01  9.0000E+01  9.0000E+01  0.0000E+00  6.0090E+00
 ------------------------------------------------------------------------------------------------------------------------
       50 -1.3258E+04  2.8793E+02 -1.5089E+04  3.7785E+03 -2.0494E+04  0.0000E+00  0.0000E+00  0.0000E+00  0.0000E+00
  25.000f -1.0566E+04  2.7328E+02 -6.1496E+03 -7.5136E+04  2.0433E+04  0.0000E+00  0.0000E+00  0.0000E+00  0.0000E+00
   1.125s  1.0833E+04  1.3388E+02  1.6268E+03  3.2536E+03  9.0000E+01  9.0000E+01  9.0000E+01  0.0000E+00  4.0715E+00

  rolling -1.1016E+04  2.8094E+02 -1.2803E+04  3.0888E+03 -1.6574E+04  0.0000E+00  0.0000E+00  0.0000E+00  0.0000E+00
 averages -7.1876E+03  2.5208E+02 -9.5149E+03 -6.6570E+04  1.6528E+04  0.0000E+00  0.0000E+00  0.0000E+00  0.0000E+00
           1.0833E+04  1.3311E+02  6.8175E+02  1.3635E+03  9.0000E+01  9.0000E+01  9.0000E+01  0.0000E+00  5.7917E+00
 ------------------------------------------------------------------------------------------------------------------------
       55 -1.3816E+04  2.2120E+02 -1.5223E+04  3.8230E+03 -2.0757E+04  0.0000E+00  0.0000E+00  0.0000E+00  0.0000E+00
  27.500f -1.1440E+04  2.5127E+02 -5.9137E+03 -7.5685E+04  2.0683E+04  0.0000E+00  0.0000E+00  0.0000E+00  0.0000E+00
   1.198s  1.0833E+04  2.7785E+01  1.7108E+03  3.4215E+03  9.0000E+01  9.0000E+01  9.0000E+01  0.0000E+00  3.5951E+00

  rolling -1.1271E+04  2.7456E+02 -1.3017E+04  3.1528E+03 -1.6941E+04  0.0000E+00  0.0000E+00  0.0000E+00  0.0000E+00
 averages -7.5763E+03  2.5195E+02 -9.1930E+03 -6.7365E+04  1.6894E+04  0.0000E+00  0.0000E+00  0.0000E+00  0.0000E+00
           1.0833E+04  1.2213E+02  7.7105E+02  1.5421E+03  9.0000E+01  9.0000E+01  9.0000E+01  0.0000E+00  5.5888E+00
 ------------------------------------------------------------------------------------------------------------------------
       60 -1.3822E+04  2.6486E+02 -1.5506E+04  4.0219E+03 -2.1495E+04  0.0000E+00  0.0000E+00  0.0000E+00  0.0000E+00
  30.000f -1.1184E+04  2.4990E+02 -6.1339E+03 -7.8189E+04  2.1398E+04  0.0000E+00  0.0000E+00  0.0000E+00  0.0000E+00
   1.276s  1.0833E+04  1.0289E+02  1.9664E+03  3.9327E+03  9.0000E+01  9.0000E+01  9.0000E+01  0.0000E+00  3.9905E+00

  rolling -1.1483E+04  2.7218E+02 -1.3214E+04  3.2175E+03 -1.7293E+04  0.0000E+00  0.0000E+00  0.0000E+00  0.0000E+00
 averages -7.8871E+03  2.5184E+02 -8.9272E+03 -6.8170E+04  1.7242E+04  0.0000E+00  0.0000E+00  0.0000E+00  0.0000E+00
           1.0833E+04  1.1778E+02  8.6094E+02  1.7219E+03  9.0000E+01  9.0000E+01  9.0000E+01  0.0000E+00  5.4398E+00
 ------------------------------------------------------------------------------------------------------------------------
       65 -1.4236E+04  2.1788E+02 -1.5622E+04  4.0531E+03 -2.1719E+04  0.0000E+00  0.0000E+00  0.0000E+00  0.0000E+00
  32.500f -1.1861E+04  2.3476E+02 -5.8459E+03 -7.8571E+04  2.1601E+04  0.0000E+00  0.0000E+00  0.0000E+00  0.0000E+00
   1.349s  1.0833E+04  2.2339E+01  2.0435E+03  4.0869E+03  9.0000E+01  9.0000E+01  9.0000E+01  0.0000E+00  3.5925E+00

  rolling -1.1695E+04  2.6731E+02 -1.3395E+04  3.2800E+03 -1.7624E+04  0.0000E+00  0.0000E+00  0.0000E+00  0.0000E+00
 averages -8.1933E+03  2.5053E+02 -8.6973E+03 -6.8948E+04  1.7569E+04  0.0000E+00  0.0000E+00  0.0000E+00  0.0000E+00
           1.0833E+04  1.0948E+02  9.4861E+02  1.8972E+03  9.0000E+01  9.0000E+01  9.0000E+01  0.0000E+00  5.2969E+00
 ------------------------------------------------------------------------------------------------------------------------
       70 -1.4237E+04  2.5748E+02 -1.5875E+04  4.2157E+03 -2.2367E+04  0.0000E+00  0.0000E+00  0.0000E+00  0.0000E+00
  35.000f -1.1701E+04  2.3838E+02 -5.8511E+03 -8.0619E+04  2.2220E+04  0.0000E+00  0.0000E+00  0.0000E+00  0.0000E+00
   1.424s  1.0833E+04  8.3102E+01  2.2758E+03  4.5516E+03  9.0000E+01  9.0000E+01  9.0000E+01  0.0000E+00  3.8375E+00

  rolling -1.1876E+04  2.6537E+02 -1.3564E+04  3.3414E+03 -1.7941E+04  0.0000E+00  0.0000E+00  0.0000E+00  0.0000E+00
 averages -8.4495E+03  2.4953E+02 -8.4918E+03 -6.9713E+04  1.7881E+04  0.0000E+00  0.0000E+00  0.0000E+00  0.0000E+00
           1.0833E+04  1.0569E+02  1.0358E+03  2.0717E+03  9.0000E+01  9.0000E+01  9.0000E+01  0.0000E+00  5.1840E+00
 ------------------------------------------------------------------------------------------------------------------------
       75 -1.4600E+04  2.2016E+02 -1.6000E+04  4.2423E+03 -2.2588E+04  0.0000E+00  0.0000E+00  0.0000E+00  0.0000E+00
  37.500f -1.2334E+04  2.2944E+02 -5.4563E+03 -8.0944E+04  2.2437E+04  0.0000E+00  0.0000E+00  0.0000E+00  0.0000E+00
   1.497s  1.0833E+04  1.8316E+01  2.3459E+03  4.6919E+03  9.0000E+01  9.0000E+01  9.0000E+01  0.0000E+00  3.4277E+00

  rolling -1.2058E+04  2.6172E+02 -1.3722E+04  3.4002E+03 -1.8243E+04  0.0000E+00  0.0000E+00  0.0000E+00  0.0000E+00
 averages -8.7077E+03  2.4797E+02 -8.2982E+03 -7.0445E+04  1.8177E+04  0.0000E+00  0.0000E+00  0.0000E+00  0.0000E+00
           1.0833E+04  9.9185E+01  1.1206E+03  2.2412E+03  9.0000E+01  9.0000E+01  9.0000E+01  0.0000E+00  5.0680E+00
 ------------------------------------------------------------------------------------------------------------------------
 ------------------------------------------------------------------------------------------------------------------------

     step     eng_tot    temp_tot     eng_cfg     eng_vdw     eng_cou     eng_bnd     eng_ang     eng_dih     eng_tet
 time          eng_pv    temp_rot     vir_cfg     vir_vdw     vir_cou     vir_bnd     vir_ang     vir_con     vir_tet
 cpu time      volume    temp_shl     eng_shl     vir_shl       alpha        beta       gamma     vir_pmf       press

 ------------------------------------------------------------------------------------------------------------------------
       80 -1.4598E+04  2.5585E+02 -1.6226E+04  4.3891E+03 -2.3171E+04  0.0000E+00  0.0000E+00  0.0000E+00  0.0000E+00
  40.000f -1.2202E+04  2.3682E+02 -5.4397E+03 -8.2791E+04  2.2990E+04  0.0000E+00  0.0000E+00  0.0000E+00  0.0000E+00
   1.573s  1.0833E+04  6.7938E+01  2.5557E+03  5.1115E+03  9.0000E+01  9.0000E+01  9.0000E+01  0.0000E+00  3.6247E+00

  rolling -1.2217E+04  2.6041E+02 -1.3873E+04  3.4577E+03 -1.8535E+04  0.0000E+00  0.0000E+00  0.0000E+00  0.0000E+00
 averages -8.9304E+03  2.4711E+02 -8.1176E+03 -7.1163E+04  1.8462E+04  0.0000E+00  0.0000E+00  0.0000E+00  0.0000E+00
           1.0833E+04  9.5873E+01  1.2043E+03  2.4086E+03  9.0000E+01  9.0000E+01  9.0000E+01  0.0000E+00  4.9713E+00
 ------------------------------------------------------------------------------------------------------------------------
       85 -1.4954E+04  2.1563E+02 -1.6325E+04  4.4187E+03 -2.3362E+04  0.0000E+00  0.0000E+00  0.0000E+00  0.0000E+00
  42.500f -1.2764E+04  2.1718E+02 -5.2060E+03 -8.3156E+04  2.3159E+04  0.0000E+00  0.0000E+00  0.0000E+00  0.0000E+00
   1.640s  1.0833E+04  1.5060E+01  2.6185E+03  5.2370E+03  9.0000E+01  9.0000E+01  9.0000E+01  0.0000E+00  3.3118E+00

  rolling -1.2378E+04  2.5735E+02 -1.4014E+04  3.5130E+03 -1.8813E+04  0.0000E+00  0.0000E+00  0.0000E+00  0.0000E+00
 averages -9.1564E+03  2.4530E+02 -7.9500E+03 -7.1853E+04  1.8733E+04  0.0000E+00  0.0000E+00  0.0000E+00  0.0000E+00
           1.0833E+04  9.0626E+01  1.2855E+03  2.5709E+03  9.0000E+01  9.0000E+01  9.0000E+01  0.0000E+00  4.8729E+00
 ------------------------------------------------------------------------------------------------------------------------
       90 -1.4957E+04  2.4190E+02 -1.6496E+04  4.5562E+03 -2.3856E+04  0.0000E+00  0.0000E+00  0.0000E+00  0.0000E+00
  45.000f -1.2597E+04  2.1564E+02 -5.3742E+03 -8.4883E+04  2.3626E+04  0.0000E+00  0.0000E+00  0.0000E+00  0.0000E+00
   1.717s  1.0833E+04  5.5908E+01  2.8041E+03  5.6082E+03  9.0000E+01  9.0000E+01  9.0000E+01  0.0000E+00  3.5700E+00

  rolling -1.2521E+04  2.5587E+02 -1.4148E+04  3.5674E+03 -1.9081E+04  0.0000E+00  0.0000E+00  0.0000E+00  0.0000E+00
 averages -9.3524E+03  2.4370E+02 -7.8008E+03 -7.2533E+04  1.8994E+04  0.0000E+00  0.0000E+00  0.0000E+00  0.0000E+00
           1.0833E+04  8.7704E+01  1.3652E+03  2.7303E+03  9.0000E+01  9.0000E+01  9.0000E+01  0.0000E+00  4.7933E+00
 ------------------------------------------------------------------------------------------------------------------------
       95 -1.5225E+04  2.1157E+02 -1.6570E+04  4.5864E+03 -2.4015E+04  0.0000E+00  0.0000E+00  0.0000E+00  0.0000E+00
  47.500f -1.2996E+04  2.0012E+02 -5.2667E+03 -8.5254E+04  2.3765E+04  0.0000E+00  0.0000E+00  0.0000E+00  0.0000E+00
   1.785s  1.0833E+04  1.2622E+01  2.8585E+03  5.7171E+03  9.0000E+01  9.0000E+01  9.0000E+01  0.0000E+00  3.3711E+00

  rolling -1.2663E+04  2.5324E+02 -1.4274E+04  3.6200E+03 -1.9336E+04  0.0000E+00  0.0000E+00  0.0000E+00  0.0000E+00
 averages -9.5450E+03  2.4144E+02 -7.6687E+03 -7.3190E+04  1.9241E+04  0.0000E+00  0.0000E+00  0.0000E+00  0.0000E+00
           1.0833E+04  8.3382E+01  1.4422E+03  2.8843E+03  9.0000E+01  9.0000E+01  9.0000E+01  0.0000E+00  4.7171E+00
 ------------------------------------------------------------------------------------------------------------------------
      100 -1.5230E+04  2.3565E+02 -1.6729E+04  4.7042E+03 -2.4452E+04  0.0000E+00  0.0000E+00  0.0000E+00  0.0000E+00
  50.000f -1.2874E+04  2.0149E+02 -5.3540E+03 -8.6726E+04  2.4174E+04  0.0000E+00  0.0000E+00  0.0000E+00  0.0000E+00
   1.867s  1.0833E+04  4.6999E+01  3.0186E+03  6.0373E+03  9.0000E+01  9.0000E+01  9.0000E+01  0.0000E+00  3.5652E+00

  rolling -1.2791E+04  2.5184E+02 -1.4393E+04  3.6715E+03 -1.9582E+04  0.0000E+00  0.0000E+00  0.0000E+00  0.0000E+00
 averages -9.7144E+03  2.3940E+02 -7.5503E+03 -7.3833E+04  1.9478E+04  0.0000E+00  0.0000E+00  0.0000E+00  0.0000E+00
           1.0833E+04  8.0810E+01  1.5174E+03  3.0347E+03  9.0000E+01  9.0000E+01  9.0000E+01  0.0000E+00  4.6549E+00
 ------------------------------------------------------------------------------------------------------------------------


 switching off temperature scaling at step    100


 ------------------------------------------------------------------------------------------------------------------------
      105 -1.5457E+04  2.1353E+02 -1.6815E+04  4.7336E+03 -2.4615E+04  0.0000E+00  0.0000E+00  0.0000E+00  0.0000E+00
  52.500f -1.3234E+04  1.9538E+02 -5.1958E+03 -8.7087E+04  2.4318E+04  0.0000E+00  0.0000E+00  0.0000E+00  0.0000E+00
   1.934s  1.0833E+04  1.0885E+01  3.0662E+03  6.1324E+03  9.0000E+01  9.0000E+01  9.0000E+01  0.0000E+00  3.3631E+00

  rolling -1.3176E+04  2.4978E+02 -1.4765E+04  3.7563E+03 -2.0190E+04  0.0000E+00  0.0000E+00  0.0000E+00  0.0000E+00
 averages -1.0376E+04  2.3897E+02 -6.7414E+03 -7.4873E+04  2.0074E+04  0.0000E+00  0.0000E+00  0.0000E+00  0.0000E+00
           1.0833E+04  7.6608E+01  1.6689E+03  3.3378E+03  9.0000E+01  9.0000E+01  9.0000E+01  0.0000E+00  4.2352E+00
 ------------------------------------------------------------------------------------------------------------------------
      110 -1.5461E+04  2.3606E+02 -1.6963E+04  4.8341E+03 -2.5004E+04  0.0000E+00  0.0000E+00  0.0000E+00  0.0000E+00
  55.000f -1.3155E+04  1.9967E+02 -5.1851E+03 -8.8339E+04  2.4686E+04  0.0000E+00  0.0000E+00  0.0000E+00  0.0000E+00
   2.001s  1.0833E+04  4.1031E+01  3.2071E+03  6.4141E+03  9.0000E+01  9.0000E+01  9.0000E+01  0.0000E+00  3.4885E+00

  rolling -1.3560E+04  2.3864E+02 -1.5078E+04  3.8575E+03 -2.0757E+04  0.0000E+00  0.0000E+00  0.0000E+00  0.0000E+00
 averages -1.0967E+04  2.3771E+02 -6.2557E+03 -7.6129E+04  2.0627E+04  0.0000E+00  0.0000E+00  0.0000E+00  0.0000E+00
           1.0833E+04  5.4915E+01  1.8212E+03  3.6424E+03  9.0000E+01  9.0000E+01  9.0000E+01  0.0000E+00  3.9229E+00
 ------------------------------------------------------------------------------------------------------------------------
      115 -1.5461E+04  2.5917E+02 -1.7110E+04  5.0109E+03 -2.5564E+04  0.0000E+00  0.0000E+00  0.0000E+00  0.0000E+00
  57.500f -1.2936E+04  1.9874E+02 -5.5414E+03 -9.0548E+04  2.5221E+04  0.0000E+00  0.0000E+00  0.0000E+00  0.0000E+00
   2.068s  1.0833E+04  7.6594E+01  3.4438E+03  6.8876E+03  9.0000E+01  9.0000E+01  9.0000E+01  0.0000E+00  3.8194E+00

  rolling -1.3831E+04  2.3942E+02 -1.5354E+04  3.9694E+03 -2.1301E+04  0.0000E+00  0.0000E+00  0.0000E+00  0.0000E+00
 averages -1.1328E+04  2.3601E+02 -5.9668E+03 -7.7525E+04  2.1158E+04  0.0000E+00  0.0000E+00  0.0000E+00  0.0000E+00
           1.0833E+04  5.5676E+01  1.9777E+03  3.9553E+03  9.0000E+01  9.0000E+01  9.0000E+01  0.0000E+00  3.7876E+00
 ------------------------------------------------------------------------------------------------------------------------
 ------------------------------------------------------------------------------------------------------------------------

     step     eng_tot    temp_tot     eng_cfg     eng_vdw     eng_cou     eng_bnd     eng_ang     eng_dih     eng_tet
 time          eng_pv    temp_rot     vir_cfg     vir_vdw     vir_cou     vir_bnd     vir_ang     vir_con     vir_tet
 cpu time      volume    temp_shl     eng_shl     vir_shl       alpha        beta       gamma     vir_pmf       press

 ------------------------------------------------------------------------------------------------------------------------
      120 -1.5463E+04  2.7379E+02 -1.7204E+04  5.2596E+03 -2.6230E+04  0.0000E+00  0.0000E+00  0.0000E+00  0.0000E+00
  60.000f -1.2570E+04  1.9117E+02 -6.4111E+03 -9.3663E+04  2.5861E+04  0.0000E+00  0.0000E+00  0.0000E+00  0.0000E+00
   2.137s  1.0833E+04  9.9735E+01  3.7664E+03  7.5329E+03  9.0000E+01  9.0000E+01  9.0000E+01  0.0000E+00  4.3760E+00

  rolling -1.4103E+04  2.3479E+02 -1.5596E+04  4.0883E+03 -2.1825E+04  0.0000E+00  0.0000E+00  0.0000E+00  0.0000E+00
 averages -1.1660E+04  2.3240E+02 -5.8204E+03 -7.9010E+04  2.1666E+04  0.0000E+00  0.0000E+00  0.0000E+00  0.0000E+00
           1.0833E+04  4.7129E+01  2.1402E+03  4.2804E+03  9.0000E+01  9.0000E+01  9.0000E+01  0.0000E+00  3.6957E+00
 ------------------------------------------------------------------------------------------------------------------------
      125 -1.5456E+04  2.7849E+02 -1.7227E+04  5.5346E+03 -2.6904E+04  0.0000E+00  0.0000E+00  0.0000E+00  0.0000E+00
  62.500f -1.2150E+04  1.8007E+02 -7.5200E+03 -9.7112E+04  2.6513E+04  0.0000E+00  0.0000E+00  0.0000E+00  0.0000E+00
   2.214s  1.0833E+04  1.0421E+02  4.1427E+03  8.2854E+03  9.0000E+01  9.0000E+01  9.0000E+01  0.0000E+00  5.0009E+00

  rolling -1.4301E+04  2.3739E+02 -1.5811E+04  4.2157E+03 -2.2339E+04  0.0000E+00  0.0000E+00  0.0000E+00  0.0000E+00
 averages -1.1848E+04  2.2895E+02 -5.7960E+03 -8.0605E+04  2.2164E+04  0.0000E+00  0.0000E+00  0.0000E+00  0.0000E+00
           1.0833E+04  5.0689E+01  2.3128E+03  4.6256E+03  9.0000E+01  9.0000E+01  9.0000E+01  0.0000E+00  3.7111E+00
 ------------------------------------------------------------------------------------------------------------------------
      130 -1.5461E+04  2.7880E+02 -1.7234E+04  5.7665E+03 -2.7522E+04  0.0000E+00  0.0000E+00  0.0000E+00  0.0000E+00
  65.000f -1.1893E+04  1.7062E+02 -8.2415E+03 -1.0002E+05  2.7112E+04  0.0000E+00  0.0000E+00  0.0000E+00  0.0000E+00
   2.281s  1.0833E+04  9.7244E+01  4.5218E+03  9.0437E+03  9.0000E+01  9.0000E+01  9.0000E+01  0.0000E+00  5.3970E+00

  rolling -1.4499E+04  2.3568E+02 -1.5998E+04  4.3477E+03 -2.2840E+04  0.0000E+00  0.0000E+00  0.0000E+00  0.0000E+00
 averages -1.2022E+04  2.2389E+02 -5.8573E+03 -8.2257E+04  2.2646E+04  0.0000E+00  0.0000E+00  0.0000E+00  0.0000E+00
           1.0833E+04  4.6668E+01  2.4944E+03  4.9888E+03  9.0000E+01  9.0000E+01  9.0000E+01  0.0000E+00  3.7473E+00
 ------------------------------------------------------------------------------------------------------------------------
      135 -1.5459E+04  2.7952E+02 -1.7237E+04  5.9111E+03 -2.8000E+04  0.0000E+00  0.0000E+00  0.0000E+00  0.0000E+00
  67.500f -1.1860E+04  1.6570E+02 -8.2940E+03 -1.0183E+05  2.7575E+04  0.0000E+00  0.0000E+00  0.0000E+00  0.0000E+00
   2.356s  1.0833E+04  8.8313E+01  4.8524E+03  9.7049E+03  9.0000E+01  9.0000E+01  9.0000E+01  0.0000E+00  5.4439E+00

  rolling -1.4646E+04  2.3873E+02 -1.6164E+04  4.4816E+03 -2.3331E+04  0.0000E+00  0.0000E+00  0.0000E+00  0.0000E+00
 averages -1.2112E+04  2.1927E+02 -5.9579E+03 -8.3935E+04  2.3118E+04  0.0000E+00  0.0000E+00  0.0000E+00  0.0000E+00
           1.0833E+04  5.0121E+01  2.6849E+03  5.3698E+03  9.0000E+01  9.0000E+01  9.0000E+01  0.0000E+00  3.8324E+00
 ------------------------------------------------------------------------------------------------------------------------
      140 -1.5461E+04  2.8166E+02 -1.7252E+04  5.9611E+03 -2.8311E+04  0.0000E+00  0.0000E+00  0.0000E+00  0.0000E+00
  70.000f -1.2042E+04  1.6425E+02 -7.7181E+03 -1.0246E+05  2.7876E+04  0.0000E+00  0.0000E+00  0.0000E+00  0.0000E+00
   2.424s  1.0833E+04  8.2737E+01  5.0976E+03  1.0195E+04  9.0000E+01  9.0000E+01  9.0000E+01  0.0000E+00  5.1719E+00

  rolling -1.4793E+04  2.3870E+02 -1.6311E+04  4.6111E+03 -2.3801E+04  0.0000E+00  0.0000E+00  0.0000E+00  0.0000E+00
 averages -1.2217E+04  2.1377E+02 -6.0513E+03 -8.5556E+04  2.3569E+04  0.0000E+00  0.0000E+00  0.0000E+00  0.0000E+00
           1.0833E+04  4.8028E+01  2.8790E+03  5.7580E+03  9.0000E+01  9.0000E+01  9.0000E+01  0.0000E+00  3.8969E+00
 ------------------------------------------------------------------------------------------------------------------------
      145 -1.5462E+04  2.8507E+02 -1.7275E+04  5.9295E+03 -2.8446E+04  0.0000E+00  0.0000E+00  0.0000E+00  0.0000E+00
  72.500f -1.2357E+04  1.6346E+02 -6.7281E+03 -1.0205E+05  2.8004E+04  0.0000E+00  0.0000E+00  0.0000E+00  0.0000E+00
   2.491s  1.0833E+04  8.3143E+01  5.2415E+03  1.0483E+04  9.0000E+01  9.0000E+01  9.0000E+01  0.0000E+00  4.6970E+00

  rolling -1.4903E+04  2.4213E+02 -1.6443E+04  4.7333E+03 -2.4250E+04  0.0000E+00  0.0000E+00  0.0000E+00  0.0000E+00
 averages -1.2283E+04  2.0891E+02 -6.1094E+03 -8.7087E+04  2.3998E+04  0.0000E+00  0.0000E+00  0.0000E+00  0.0000E+00
           1.0833E+04  5.1337E+01  3.0736E+03  6.1473E+03  9.0000E+01  9.0000E+01  9.0000E+01  0.0000E+00  3.9638E+00
 ------------------------------------------------------------------------------------------------------------------------
      150 -1.5462E+04  2.8945E+02 -1.7303E+04  5.8406E+03 -2.8431E+04  0.0000E+00  0.0000E+00  0.0000E+00  0.0000E+00
  75.000f -1.2719E+04  1.6169E+02 -5.5733E+03 -1.0092E+05  2.7987E+04  0.0000E+00  0.0000E+00  0.0000E+00  0.0000E+00
   2.561s  1.0833E+04  8.9464E+01  5.2877E+03  1.0575E+04  9.0000E+01  9.0000E+01  9.0000E+01  0.0000E+00  4.1485E+00

  rolling -1.5014E+04  2.4337E+02 -1.6562E+04  4.8439E+03 -2.4668E+04  0.0000E+00  0.0000E+00  0.0000E+00  0.0000E+00
 averages -1.2376E+04  2.0350E+02 -6.1120E+03 -8.8470E+04  2.4396E+04  0.0000E+00  0.0000E+00  0.0000E+00  0.0000E+00
           1.0833E+04  5.1102E+01  3.2625E+03  6.5249E+03  9.0000E+01  9.0000E+01  9.0000E+01  0.0000E+00  3.9905E+00
 ------------------------------------------------------------------------------------------------------------------------
      155 -1.5465E+04  2.9427E+02 -1.7337E+04  5.7251E+03 -2.8316E+04  0.0000E+00  0.0000E+00  0.0000E+00  0.0000E+00
  77.500f -1.3060E+04  1.5945E+02 -4.4854E+03 -9.9450E+04  2.7873E+04  0.0000E+00  0.0000E+00  0.0000E+00  0.0000E+00
   2.630s  1.0833E+04  9.8880E+01  5.2543E+03  1.0509E+04  9.0000E+01  9.0000E+01  9.0000E+01  0.0000E+00  3.6381E+00

  rolling -1.5096E+04  2.4745E+02 -1.6670E+04  4.9429E+03 -2.5056E+04  0.0000E+00  0.0000E+00  0.0000E+00  0.0000E+00
 averages -1.2449E+04  1.9898E+02 -6.0587E+03 -8.9707E+04  2.4765E+04  0.0000E+00  0.0000E+00  0.0000E+00  0.0000E+00
           1.0833E+04  5.5235E+01  3.4429E+03  6.8858E+03  9.0000E+01  9.0000E+01  9.0000E+01  0.0000E+00  4.0042E+00
 ------------------------------------------------------------------------------------------------------------------------
 ------------------------------------------------------------------------------------------------------------------------

     step     eng_tot    temp_tot     eng_cfg     eng_vdw     eng_cou     eng_bnd     eng_ang     eng_dih     eng_tet
 time          eng_pv    temp_rot     vir_cfg     vir_vdw     vir_cou     vir_bnd     vir_ang     vir_con     vir_tet
 cpu time      volume    temp_shl     eng_shl     vir_shl       alpha        beta       gamma     vir_pmf       press

 ------------------------------------------------------------------------------------------------------------------------
      160 -1.5471E+04  2.9897E+02 -1.7373E+04  5.6098E+03 -2.8150E+04  0.0000E+00  0.0000E+00  0.0000E+00  0.0000E+00
  80.000f -1.3328E+04  1.5789E+02 -3.6299E+03 -9.7984E+04  2.7711E+04  0.0000E+00  0.0000E+00  0.0000E+00  0.0000E+00
   2.698s  1.0833E+04  1.0802E+02  5.1672E+03  1.0334E+04  9.0000E+01  9.0000E+01  9.0000E+01  0.0000E+00  3.2418E+00

  rolling -1.5178E+04  2.5001E+02 -1.6769E+04  5.0291E+03 -2.5408E+04  0.0000E+00  0.0000E+00  0.0000E+00  0.0000E+00
 averages -1.2545E+04  1.9437E+02 -5.9559E+03 -9.0784E+04  2.5100E+04  0.0000E+00  0.0000E+00  0.0000E+00  0.0000E+00
           1.0833E+04  5.6966E+01  3.6107E+03  7.2214E+03  9.0000E+01  9.0000E+01  9.0000E+01  0.0000E+00  3.9836E+00
 ------------------------------------------------------------------------------------------------------------------------
      165 -1.5475E+04  3.0270E+02 -1.7400E+04  5.5182E+03 -2.7973E+04  0.0000E+00  0.0000E+00  0.0000E+00  0.0000E+00
  82.500f -1.3468E+04  1.5714E+02 -3.1690E+03 -9.6819E+04  2.7510E+04  0.0000E+00  0.0000E+00  0.0000E+00  0.0000E+00
   2.773s  1.0833E+04  1.1414E+02  5.0541E+03  1.0108E+04  9.0000E+01  9.0000E+01  9.0000E+01  0.0000E+00  3.0357E+00

  rolling -1.5240E+04  2.5463E+02 -1.6860E+04  5.1052E+03 -2.5731E+04  0.0000E+00  0.0000E+00  0.0000E+00  0.0000E+00
 averages -1.2623E+04  1.9051E+02 -5.8256E+03 -9.1732E+04  2.5404E+04  0.0000E+00  0.0000E+00  0.0000E+00  0.0000E+00
           1.0833E+04  6.2070E+01  3.7657E+03  7.5314E+03  9.0000E+01  9.0000E+01  9.0000E+01  0.0000E+00  3.9600E+00
 ------------------------------------------------------------------------------------------------------------------------
      170 -1.5483E+04  3.0498E+02 -1.7423E+04  5.4676E+03 -2.7829E+04  0.0000E+00  0.0000E+00  0.0000E+00  0.0000E+00
  85.000f -1.3490E+04  1.5623E+02 -3.0937E+03 -9.6171E+04  2.7374E+04  0.0000E+00  0.0000E+00  0.0000E+00  0.0000E+00
   2.841s  1.0833E+04  1.1689E+02  4.9386E+03  9.8772E+03  9.0000E+01  9.0000E+01  9.0000E+01  0.0000E+00  3.0153E+00

  rolling -1.5302E+04  2.5783E+02 -1.6942E+04  5.1724E+03 -2.6021E+04  0.0000E+00  0.0000E+00  0.0000E+00  0.0000E+00
 averages -1.2708E+04  1.8651E+02 -5.6893E+03 -9.2568E+04  2.5679E+04  0.0000E+00  0.0000E+00  0.0000E+00  0.0000E+00
           1.0833E+04  6.5049E+01  3.9064E+03  7.8128E+03  9.0000E+01  9.0000E+01  9.0000E+01  0.0000E+00  3.9246E+00
 ------------------------------------------------------------------------------------------------------------------------
      175 -1.5486E+04  3.0642E+02 -1.7435E+04  5.4603E+03 -2.7733E+04  0.0000E+00  0.0000E+00  0.0000E+00  0.0000E+00
  87.500f -1.3383E+04  1.5400E+02 -3.3927E+03 -9.6073E+04  2.7284E+04  0.0000E+00  0.0000E+00  0.0000E+00  0.0000E+00
   2.908s  1.0833E+04  1.1855E+02  4.8372E+03  9.6744E+03  9.0000E+01  9.0000E+01  9.0000E+01  0.0000E+00  3.1825E+00

  rolling -1.5347E+04  2.6259E+02 -1.7017E+04  5.2343E+03 -2.6286E+04  0.0000E+00  0.0000E+00  0.0000E+00  0.0000E+00
 averages -1.2764E+04  1.8296E+02 -5.5723E+03 -9.3337E+04  2.5928E+04  0.0000E+00  0.0000E+00  0.0000E+00  0.0000E+00
           1.0833E+04  7.0537E+01  4.0349E+03  8.0697E+03  9.0000E+01  9.0000E+01  9.0000E+01  0.0000E+00  3.9075E+00
 ------------------------------------------------------------------------------------------------------------------------
      180 -1.5490E+04  3.0748E+02 -1.7446E+04  5.4898E+03 -2.7696E+04  0.0000E+00  0.0000E+00  0.0000E+00  0.0000E+00
  90.000f -1.3194E+04  1.5023E+02 -3.9328E+03 -9.6444E+04  2.7251E+04  0.0000E+00  0.0000E+00  0.0000E+00  0.0000E+00
   2.975s  1.0833E+04  1.2039E+02  4.7608E+03  9.5215E+03  9.0000E+01  9.0000E+01  9.0000E+01  0.0000E+00  3.4737E+00

  rolling -1.5391E+04  2.6591E+02 -1.7083E+04  5.2921E+03 -2.6526E+04  0.0000E+00  0.0000E+00  0.0000E+00  0.0000E+00
 averages -1.2814E+04  1.7884E+02 -5.4869E+03 -9.4054E+04  2.6154E+04  0.0000E+00  0.0000E+00  0.0000E+00  0.0000E+00
           1.0833E+04  7.4210E+01  4.1513E+03  8.3026E+03  9.0000E+01  9.0000E+01  9.0000E+01  0.0000E+00  3.8990E+00
 ------------------------------------------------------------------------------------------------------------------------
      185 -1.5501E+04  3.0797E+02 -1.7460E+04  5.5487E+03 -2.7725E+04  0.0000E+00  0.0000E+00  0.0000E+00  0.0000E+00
  92.500f -1.2974E+04  1.4627E+02 -4.5936E+03 -9.7192E+04  2.7280E+04  0.0000E+00  0.0000E+00  0.0000E+00  0.0000E+00
   3.044s  1.0833E+04  1.2102E+02  4.7167E+03  9.4334E+03  9.0000E+01  9.0000E+01  9.0000E+01  0.0000E+00  3.8228E+00

  rolling -1.5418E+04  2.7088E+02 -1.7141E+04  5.3483E+03 -2.6748E+04  0.0000E+00  0.0000E+00  0.0000E+00  0.0000E+00
 averages -1.2828E+04  1.7541E+02 -5.4399E+03 -9.4752E+04  2.6364E+04  0.0000E+00  0.0000E+00  0.0000E+00  0.0000E+00
           1.0833E+04  7.9924E+01  4.2587E+03  8.5174E+03  9.0000E+01  9.0000E+01  9.0000E+01  0.0000E+00  3.9181E+00
 ------------------------------------------------------------------------------------------------------------------------
      190 -1.5501E+04  3.0795E+02 -1.7459E+04  5.6275E+03 -2.7796E+04  0.0000E+00  0.0000E+00  0.0000E+00  0.0000E+00
  95.000f -1.2731E+04  1.4422E+02 -5.3083E+03 -9.8198E+04  2.7345E+04  0.0000E+00  0.0000E+00  0.0000E+00  0.0000E+00
   3.112s  1.0833E+04  1.1879E+02  4.7088E+03  9.4176E+03  9.0000E+01  9.0000E+01  9.0000E+01  0.0000E+00  4.1897E+00

  rolling -1.5445E+04  2.7474E+02 -1.7193E+04  5.4034E+03 -2.6955E+04  0.0000E+00  0.0000E+00  0.0000E+00  0.0000E+00
 averages -1.2835E+04  1.7182E+02 -5.4280E+03 -9.5437E+04  2.6559E+04  0.0000E+00  0.0000E+00  0.0000E+00  0.0000E+00
           1.0833E+04  8.4018E+01  4.3581E+03  8.7163E+03  9.0000E+01  9.0000E+01  9.0000E+01  0.0000E+00  3.9484E+00
 ------------------------------------------------------------------------------------------------------------------------
      195 -1.5503E+04  3.0885E+02 -1.7468E+04  5.7102E+03 -2.7913E+04  0.0000E+00  0.0000E+00  0.0000E+00  0.0000E+00
  97.500f -1.2541E+04  1.4527E+02 -5.8821E+03 -9.9254E+04  2.7453E+04  0.0000E+00  0.0000E+00  0.0000E+00  0.0000E+00
   3.179s  1.0833E+04  1.1541E+02  4.7350E+03  9.4701E+03  9.0000E+01  9.0000E+01  9.0000E+01  0.0000E+00  4.4813E+00

  rolling -1.5459E+04  2.7986E+02 -1.7240E+04  5.4590E+03 -2.7151E+04  0.0000E+00  0.0000E+00  0.0000E+00  0.0000E+00
 averages -1.2815E+04  1.6901E+02 -5.4468E+03 -9.6128E+04  2.6745E+04  0.0000E+00  0.0000E+00  0.0000E+00  0.0000E+00
           1.0833E+04  8.9575E+01  4.4528E+03  8.9056E+03  9.0000E+01  9.0000E+01  9.0000E+01  0.0000E+00  3.9998E+00
 ------------------------------------------------------------------------------------------------------------------------
 ------------------------------------------------------------------------------------------------------------------------

     step     eng_tot    temp_tot     eng_cfg     eng_vdw     eng_cou     eng_bnd     eng_ang     eng_dih     eng_tet
 time          eng_pv    temp_rot     vir_cfg     vir_vdw     vir_cou     vir_bnd     vir_ang     vir_con     vir_tet
 cpu time      volume    temp_shl     eng_shl     vir_shl       alpha        beta       gamma     vir_pmf       press

 ------------------------------------------------------------------------------------------------------------------------
      200 -1.5530E+04  3.1171E+02 -1.7513E+04  5.7850E+03 -2.8087E+04  0.0000E+00  0.0000E+00  0.0000E+00  0.0000E+00
 100.000f -1.2453E+04  1.4914E+02 -6.2140E+03 -1.0020E+05  2.7578E+04  0.0000E+00  0.0000E+00  0.0000E+00  0.0000E+00
   3.257s  1.0833E+04  1.1354E+02  4.7887E+03  9.5774E+03  9.0000E+01  9.0000E+01  9.0000E+01  0.0000E+00  4.6547E+00

  rolling -1.5474E+04  2.8413E+02 -1.7281E+04  5.5143E+03 -2.7339E+04  0.0000E+00  0.0000E+00  0.0000E+00  0.0000E+00
 averages -1.2792E+04  1.6635E+02 -5.4872E+03 -9.6818E+04  2.6922E+04  0.0000E+00  0.0000E+00  0.0000E+00  0.0000E+00
           1.0833E+04  9.3681E+01  4.5438E+03  9.0876E+03  9.0000E+01  9.0000E+01  9.0000E+01  0.0000E+00  4.0560E+00
 ------------------------------------------------------------------------------------------------------------------------
      205 -1.5538E+04  3.1676E+02 -1.7552E+04  5.8446E+03 -2.8258E+04  0.0000E+00  0.0000E+00  0.0000E+00  0.0000E+00
 102.500f -1.2421E+04  1.5460E+02 -6.3046E+03 -1.0095E+05  2.7733E+04  0.0000E+00  0.0000E+00  0.0000E+00  0.0000E+00
   3.330s  1.0833E+04  1.1488E+02  4.8614E+03  9.7229E+03  9.0000E+01  9.0000E+01  9.0000E+01  0.0000E+00  4.7152E+00

  rolling -1.5478E+04  2.8949E+02 -1.7319E+04  5.5696E+03 -2.7522E+04  0.0000E+00  0.0000E+00  0.0000E+00  0.0000E+00
 averages -1.2752E+04  1.6431E+02 -5.5393E+03 -9.7508E+04  2.7093E+04  0.0000E+00  0.0000E+00  0.0000E+00  0.0000E+00
           1.0833E+04  9.9144E+01  4.6333E+03  9.2667E+03  9.0000E+01  9.0000E+01  9.0000E+01  0.0000E+00  4.1233E+00
 ------------------------------------------------------------------------------------------------------------------------
      210 -1.5539E+04  3.2245E+02 -1.7590E+04  5.8807E+03 -2.8416E+04  0.0000E+00  0.0000E+00  0.0000E+00  0.0000E+00
 105.000f -1.2462E+04  1.5919E+02 -6.1424E+03 -1.0138E+05  2.7876E+04  0.0000E+00  0.0000E+00  0.0000E+00  0.0000E+00
   3.397s  1.0833E+04  1.1844E+02  4.9447E+03  9.8894E+03  9.0000E+01  9.0000E+01  9.0000E+01  0.0000E+00  4.6552E+00

  rolling -1.5482E+04  2.9417E+02 -1.7353E+04  5.6236E+03 -2.7698E+04  0.0000E+00  0.0000E+00  0.0000E+00  0.0000E+00
 averages -1.2714E+04  1.6227E+02 -5.5920E+03 -9.8181E+04  2.7258E+04  0.0000E+00  0.0000E+00  0.0000E+00  0.0000E+00
           1.0833E+04  1.0360E+02  4.7217E+03  9.4435E+03  9.0000E+01  9.0000E+01  9.0000E+01  0.0000E+00  4.1864E+00
 ------------------------------------------------------------------------------------------------------------------------
      215 -1.5542E+04  3.2677E+02 -1.7620E+04  5.8866E+03 -2.8537E+04  0.0000E+00  0.0000E+00  0.0000E+00  0.0000E+00
 107.500f -1.2588E+04  1.6078E+02 -5.7290E+03 -1.0143E+05  2.7988E+04  0.0000E+00  0.0000E+00  0.0000E+00  0.0000E+00
   3.466s  1.0833E+04  1.2163E+02  5.0300E+03  1.0060E+04  9.0000E+01  9.0000E+01  9.0000E+01  0.0000E+00  4.4693E+00

  rolling -1.5485E+04  2.9792E+02 -1.7380E+04  5.6712E+03 -2.7856E+04  0.0000E+00  0.0000E+00  0.0000E+00  0.0000E+00
 averages -1.2689E+04  1.6031E+02 -5.6198E+03 -9.8774E+04  2.7405E+04  0.0000E+00  0.0000E+00  0.0000E+00  0.0000E+00
           1.0833E+04  1.0649E+02  4.8045E+03  9.6089E+03  9.0000E+01  9.0000E+01  9.0000E+01  0.0000E+00  4.2307E+00
 ------------------------------------------------------------------------------------------------------------------------
      220 -1.5547E+04  3.2923E+02 -1.7641E+04  5.8638E+03 -2.8614E+04  0.0000E+00  0.0000E+00  0.0000E+00  0.0000E+00
 110.000f -1.2783E+04  1.5945E+02 -5.1179E+03 -1.0110E+05  2.8059E+04  0.0000E+00  0.0000E+00  0.0000E+00  0.0000E+00
   3.533s  1.0833E+04  1.2313E+02  5.1091E+03  1.0218E+04  9.0000E+01  9.0000E+01  9.0000E+01  0.0000E+00  4.1812E+00

  rolling -1.5490E+04  3.0090E+02 -1.7403E+04  5.7072E+03 -2.7987E+04  0.0000E+00  0.0000E+00  0.0000E+00  0.0000E+00
 averages -1.2687E+04  1.5859E+02 -5.5874E+03 -9.9219E+04  2.7527E+04  0.0000E+00  0.0000E+00  0.0000E+00  0.0000E+00
           1.0833E+04  1.0802E+02  4.8768E+03  9.7536E+03  9.0000E+01  9.0000E+01  9.0000E+01  0.0000E+00  4.2390E+00
 ------------------------------------------------------------------------------------------------------------------------
      225 -1.5551E+04  3.3064E+02 -1.7654E+04  5.8258E+03 -2.8655E+04  0.0000E+00  0.0000E+00  0.0000E+00  0.0000E+00
 112.500f -1.2998E+04  1.5727E+02 -4.4535E+03 -1.0059E+05  2.8097E+04  0.0000E+00  0.0000E+00  0.0000E+00  0.0000E+00
   3.600s  1.0833E+04  1.2278E+02  5.1754E+03  1.0351E+04  9.0000E+01  9.0000E+01  9.0000E+01  0.0000E+00  3.8622E+00

  rolling -1.5494E+04  3.0354E+02 -1.7425E+04  5.7280E+03 -2.8088E+04  0.0000E+00  0.0000E+00  0.0000E+00  0.0000E+00
 averages -1.2717E+04  1.5726E+02 -5.4692E+03 -9.9472E+04  2.7618E+04  0.0000E+00  0.0000E+00  0.0000E+00  0.0000E+00
           1.0833E+04  1.0899E+02  4.9348E+03  9.8696E+03  9.0000E+01  9.0000E+01  9.0000E+01  0.0000E+00  4.2006E+00
 ------------------------------------------------------------------------------------------------------------------------
      230 -1.5528E+04  3.3272E+02 -1.7645E+04  5.7870E+03 -2.8657E+04  0.0000E+00  0.0000E+00  0.0000E+00  0.0000E+00
 115.000f -1.3167E+04  1.5655E+02 -3.8465E+03 -1.0007E+05  2.8154E+04  0.0000E+00  0.0000E+00  0.0000E+00  0.0000E+00
   3.672s  1.0833E+04  1.2227E+02  5.2256E+03  1.0451E+04  9.0000E+01  9.0000E+01  9.0000E+01  0.0000E+00  3.5719E+00

  rolling -1.5499E+04  3.0619E+02 -1.7446E+04  5.7342E+03 -2.8157E+04  0.0000E+00  0.0000E+00  0.0000E+00  0.0000E+00
 averages -1.2774E+04  1.5639E+02 -5.2731E+03 -9.9539E+04  2.7680E+04  0.0000E+00  0.0000E+00  0.0000E+00  0.0000E+00
           1.0833E+04  1.1008E+02  4.9766E+03  9.9531E+03  9.0000E+01  9.0000E+01  9.0000E+01  0.0000E+00  4.1215E+00
 ------------------------------------------------------------------------------------------------------------------------
      235 -1.5531E+04  3.3635E+02 -1.7670E+04  5.7554E+03 -2.8687E+04  0.0000E+00  0.0000E+00  0.0000E+00  0.0000E+00
 117.500f -1.3321E+04  1.5822E+02 -3.3547E+03 -9.9656E+04  2.8181E+04  0.0000E+00  0.0000E+00  0.0000E+00  0.0000E+00
   3.740s  1.0833E+04  1.2296E+02  5.2615E+03  1.0523E+04  9.0000E+01  9.0000E+01  9.0000E+01  0.0000E+00  3.3418E+00

  rolling -1.5502E+04  3.0897E+02 -1.7467E+04  5.7295E+03 -2.8199E+04  0.0000E+00  0.0000E+00  0.0000E+00  0.0000E+00
 averages -1.2844E+04  1.5589E+02 -5.0340E+03 -9.9470E+04  2.7719E+04  0.0000E+00  0.0000E+00  0.0000E+00  0.0000E+00
           1.0833E+04  1.1162E+02  5.0027E+03  1.0005E+04  9.0000E+01  9.0000E+01  9.0000E+01  0.0000E+00  4.0204E+00
 ------------------------------------------------------------------------------------------------------------------------
 ------------------------------------------------------------------------------------------------------------------------

     step     eng_tot    temp_tot     eng_cfg     eng_vdw     eng_cou     eng_bnd     eng_ang     eng_dih     eng_tet
 time          eng_pv    temp_rot     vir_cfg     vir_vdw     vir_cou     vir_bnd     vir_ang     vir_con     vir_tet
 cpu time      volume    temp_shl     eng_shl     vir_shl       alpha        beta       gamma     vir_pmf       press

 ------------------------------------------------------------------------------------------------------------------------
      240 -1.5535E+04  3.4059E+02 -1.7701E+04  5.7362E+03 -2.8727E+04  0.0000E+00  0.0000E+00  0.0000E+00  0.0000E+00
 120.000f -1.3428E+04  1.6151E+02 -3.0149E+03 -9.9405E+04  2.8219E+04  0.0000E+00  0.0000E+00  0.0000E+00  0.0000E+00
   3.807s  1.0833E+04  1.2421E+02  5.2898E+03  1.0580E+04  9.0000E+01  9.0000E+01  9.0000E+01  0.0000E+00  3.1870E+00

  rolling -1.5506E+04  3.1188E+02 -1.7489E+04  5.7192E+03 -2.8225E+04  0.0000E+00  0.0000E+00  0.0000E+00  0.0000E+00
 averages -1.2916E+04  1.5567E+02 -4.7914E+03 -9.9329E+04  2.7740E+04  0.0000E+00  0.0000E+00  0.0000E+00  0.0000E+00
           1.0833E+04  1.1358E+02  5.0162E+03  1.0032E+04  9.0000E+01  9.0000E+01  9.0000E+01  0.0000E+00  3.9174E+00
 ------------------------------------------------------------------------------------------------------------------------
      245 -1.5541E+04  3.4463E+02 -1.7733E+04  5.7302E+03 -2.8782E+04  0.0000E+00  0.0000E+00  0.0000E+00  0.0000E+00
 122.500f -1.3493E+04  1.6503E+02 -2.8093E+03 -9.9325E+04  2.8270E+04  0.0000E+00  0.0000E+00  0.0000E+00  0.0000E+00
   3.874s  1.0833E+04  1.2580E+02  5.3187E+03  1.0637E+04  9.0000E+01  9.0000E+01  9.0000E+01  0.0000E+00  3.0980E+00

  rolling -1.5510E+04  3.1485E+02 -1.7512E+04  5.7084E+03 -2.8243E+04  0.0000E+00  0.0000E+00  0.0000E+00  0.0000E+00
 averages -1.2978E+04  1.5566E+02 -4.5781E+03 -9.9182E+04  2.7755E+04  0.0000E+00  0.0000E+00  0.0000E+00  0.0000E+00
           1.0833E+04  1.1571E+02  5.0220E+03  1.0044E+04  9.0000E+01  9.0000E+01  9.0000E+01  0.0000E+00  3.8290E+00
 ------------------------------------------------------------------------------------------------------------------------
      250 -1.5539E+04  3.4807E+02 -1.7752E+04  5.7376E+03 -2.8844E+04  0.0000E+00  0.0000E+00  0.0000E+00  0.0000E+00
 125.000f -1.3508E+04  1.6759E+02 -2.7284E+03 -9.9414E+04  2.8329E+04  0.0000E+00  0.0000E+00  0.0000E+00  0.0000E+00
   3.942s  1.0833E+04  1.2757E+02  5.3537E+03  1.0707E+04  9.0000E+01  9.0000E+01  9.0000E+01  0.0000E+00  3.0711E+00

  rolling -1.5513E+04  3.1781E+02 -1.7535E+04  5.7011E+03 -2.8261E+04  0.0000E+00  0.0000E+00  0.0000E+00  0.0000E+00
 averages -1.3025E+04  1.5587E+02 -4.4140E+03 -9.9080E+04  2.7770E+04  0.0000E+00  0.0000E+00  0.0000E+00  0.0000E+00
           1.0833E+04  1.1773E+02  5.0251E+03  1.0050E+04  9.0000E+01  9.0000E+01  9.0000E+01  0.0000E+00  3.7645E+00
 ------------------------------------------------------------------------------------------------------------------------
      255 -1.5543E+04  3.5029E+02 -1.7771E+04  5.7541E+03 -2.8920E+04  0.0000E+00  0.0000E+00  0.0000E+00  0.0000E+00
 127.500f -1.3515E+04  1.6845E+02 -2.6978E+03 -9.9612E+04  2.8403E+04  0.0000E+00  0.0000E+00  0.0000E+00  0.0000E+00
   4.010s  1.0833E+04  1.2855E+02  5.3956E+03  1.0791E+04  9.0000E+01  9.0000E+01  9.0000E+01  0.0000E+00  3.0672E+00

  rolling -1.5517E+04  3.2067E+02 -1.7557E+04  5.6998E+03 -2.8287E+04  0.0000E+00  0.0000E+00  0.0000E+00  0.0000E+00
 averages -1.3054E+04  1.5626E+02 -4.3040E+03 -9.9054E+04  2.7792E+04  0.0000E+00  0.0000E+00  0.0000E+00  0.0000E+00
           1.0833E+04  1.1939E+02  5.0304E+03  1.0061E+04  9.0000E+01  9.0000E+01  9.0000E+01  0.0000E+00  3.7261E+00
 ------------------------------------------------------------------------------------------------------------------------
      260 -1.5539E+04  3.4954E+02 -1.7763E+04  5.7777E+03 -2.8981E+04  0.0000E+00  0.0000E+00  0.0000E+00  0.0000E+00
 130.000f -1.3495E+04  1.6705E+02 -2.7494E+03 -9.9896E+04  2.8487E+04  0.0000E+00  0.0000E+00  0.0000E+00  0.0000E+00
   4.080s  1.0833E+04  1.2617E+02  5.4411E+03  1.0882E+04  9.0000E+01  9.0000E+01  9.0000E+01  0.0000E+00  3.0928E+00

  rolling -1.5521E+04  3.2332E+02 -1.7577E+04  5.7055E+03 -2.8324E+04  0.0000E+00  0.0000E+00  0.0000E+00  0.0000E+00
 averages -1.3068E+04  1.5673E+02 -4.2424E+03 -9.9114E+04  2.7826E+04  0.0000E+00  0.0000E+00  0.0000E+00  0.0000E+00
           1.0833E+04  1.2054E+02  5.0412E+03  1.0082E+04  9.0000E+01  9.0000E+01  9.0000E+01  0.0000E+00  3.7106E+00
 ------------------------------------------------------------------------------------------------------------------------
      265 -1.5543E+04  3.4520E+02 -1.7739E+04  5.8033E+03 -2.9024E+04  0.0000E+00  0.0000E+00  0.0000E+00  0.0000E+00
 132.500f -1.3465E+04  1.6374E+02 -2.8831E+03 -1.0020E+05  2.8536E+04  0.0000E+00  0.0000E+00  0.0000E+00  0.0000E+00
   4.147s  1.0833E+04  1.1972E+02  5.4821E+03  1.0964E+04  9.0000E+01  9.0000E+01  9.0000E+01  0.0000E+00  3.1430E+00

  rolling -1.5524E+04  3.2561E+02 -1.7595E+04  5.7175E+03 -2.8372E+04  0.0000E+00  0.0000E+00  0.0000E+00  0.0000E+00
 averages -1.3071E+04  1.5712E+02 -4.2173E+03 -9.9256E+04  2.7873E+04  0.0000E+00  0.0000E+00  0.0000E+00  0.0000E+00
           1.0833E+04  1.2107E+02  5.0596E+03  1.0119E+04  9.0000E+01  9.0000E+01  9.0000E+01  0.0000E+00  3.7114E+00
 ------------------------------------------------------------------------------------------------------------------------
      270 -1.5549E+04  3.4193E+02 -1.7724E+04  5.8026E+03 -2.9035E+04  0.0000E+00  0.0000E+00  0.0000E+00  0.0000E+00
 135.000f -1.3506E+04  1.5956E+02 -2.7934E+03 -1.0017E+05  2.8552E+04  0.0000E+00  0.0000E+00  0.0000E+00  0.0000E+00
   4.222s  1.0833E+04  1.1660E+02  5.5082E+03  1.1016E+04  9.0000E+01  9.0000E+01  9.0000E+01  0.0000E+00  3.0902E+00

  rolling -1.5528E+04  3.2755E+02 -1.7611E+04  5.7336E+03 -2.8430E+04  0.0000E+00  0.0000E+00  0.0000E+00  0.0000E+00
 averages -1.3070E+04  1.5735E+02 -4.2058E+03 -9.9448E+04  2.7929E+04  0.0000E+00  0.0000E+00  0.0000E+00  0.0000E+00
           1.0833E+04  1.2113E+02  5.0853E+03  1.0171E+04  9.0000E+01  9.0000E+01  9.0000E+01  0.0000E+00  3.7172E+00
 ------------------------------------------------------------------------------------------------------------------------
      275 -1.5550E+04  3.4411E+02 -1.7739E+04  5.7584E+03 -2.9011E+04  0.0000E+00  0.0000E+00  0.0000E+00  0.0000E+00
 137.500f -1.3657E+04  1.5562E+02 -2.2928E+03 -9.9600E+04  2.8533E+04  0.0000E+00  0.0000E+00  0.0000E+00  0.0000E+00
   4.289s  1.0833E+04  1.2261E+02  5.5141E+03  1.1028E+04  9.0000E+01  9.0000E+01  9.0000E+01  0.0000E+00  2.8644E+00

  rolling -1.5531E+04  3.2940E+02 -1.7626E+04  5.7496E+03 -2.8493E+04  0.0000E+00  0.0000E+00  0.0000E+00  0.0000E+00
 averages -1.3078E+04  1.5746E+02 -4.1695E+03 -9.9638E+04  2.7991E+04  0.0000E+00  0.0000E+00  0.0000E+00  0.0000E+00
           1.0833E+04  1.2121E+02  5.1172E+03  1.0234E+04  9.0000E+01  9.0000E+01  9.0000E+01  0.0000E+00  3.7104E+00
 ------------------------------------------------------------------------------------------------------------------------
 ------------------------------------------------------------------------------------------------------------------------

     step     eng_tot    temp_tot     eng_cfg     eng_vdw     eng_cou     eng_bnd     eng_ang     eng_dih     eng_tet
 time          eng_pv    temp_rot     vir_cfg     vir_vdw     vir_cou     vir_bnd     vir_ang     vir_con     vir_tet
 cpu time      volume    temp_shl     eng_shl     vir_shl       alpha        beta       gamma     vir_pmf       press

 ------------------------------------------------------------------------------------------------------------------------
      280 -1.5556E+04  3.4899E+02 -1.7775E+04  5.6980E+03 -2.8977E+04  0.0000E+00  0.0000E+00  0.0000E+00  0.0000E+00
 140.000f -1.3841E+04  1.5248E+02 -1.6751E+03 -9.8828E+04  2.8501E+04  0.0000E+00  0.0000E+00  0.0000E+00  0.0000E+00
   4.362s  1.0833E+04  1.3155E+02  5.5036E+03  1.1007E+04  9.0000E+01  9.0000E+01  9.0000E+01  0.0000E+00  2.5943E+00

  rolling -1.5534E+04  3.3139E+02 -1.7642E+04  5.7619E+03 -2.8557E+04  0.0000E+00  0.0000E+00  0.0000E+00  0.0000E+00
 averages -1.3103E+04  1.5755E+02 -4.0800E+03 -9.9782E+04  2.8053E+04  0.0000E+00  0.0000E+00  0.0000E+00  0.0000E+00
           1.0833E+04  1.2163E+02  5.1532E+03  1.0306E+04  9.0000E+01  9.0000E+01  9.0000E+01  0.0000E+00  3.6779E+00
 ------------------------------------------------------------------------------------------------------------------------
      285 -1.5561E+04  3.5220E+02 -1.7801E+04  5.6525E+03 -2.8938E+04  0.0000E+00  0.0000E+00  0.0000E+00  0.0000E+00
 142.500f -1.3950E+04  1.5049E+02 -1.3091E+03 -9.8250E+04  2.8462E+04  0.0000E+00  0.0000E+00  0.0000E+00  0.0000E+00
   4.429s  1.0833E+04  1.3516E+02  5.4839E+03  1.0968E+04  9.0000E+01  9.0000E+01  9.0000E+01  0.0000E+00  2.4367E+00

  rolling -1.5537E+04  3.3356E+02 -1.7659E+04  5.7692E+03 -2.8619E+04  0.0000E+00  0.0000E+00  0.0000E+00  0.0000E+00
 averages -1.3146E+04  1.5772E+02 -3.9351E+03 -9.9861E+04  2.8114E+04  0.0000E+00  0.0000E+00  0.0000E+00  0.0000E+00
           1.0833E+04  1.2230E+02  5.1912E+03  1.0382E+04  9.0000E+01  9.0000E+01  9.0000E+01  0.0000E+00  3.6181E+00
 ------------------------------------------------------------------------------------------------------------------------
      290 -1.5567E+04  3.5243E+02 -1.7809E+04  5.6294E+03 -2.8897E+04  0.0000E+00  0.0000E+00  0.0000E+00  0.0000E+00
 145.000f -1.3980E+04  1.5043E+02 -1.2341E+03 -9.7959E+04  2.8442E+04  0.0000E+00  0.0000E+00  0.0000E+00  0.0000E+00
   4.501s  1.0833E+04  1.3100E+02  5.4586E+03  1.0917E+04  9.0000E+01  9.0000E+01  9.0000E+01  0.0000E+00  2.4006E+00

  rolling -1.5540E+04  3.3579E+02 -1.7676E+04  5.7713E+03 -2.8677E+04  0.0000E+00  0.0000E+00  0.0000E+00  0.0000E+00
 averages -1.3203E+04  1.5799E+02 -3.7462E+03 -9.9875E+04  2.8171E+04  0.0000E+00  0.0000E+00  0.0000E+00  0.0000E+00
           1.0833E+04  1.2297E+02  5.2292E+03  1.0458E+04  9.0000E+01  9.0000E+01  9.0000E+01  0.0000E+00  3.5363E+00
 ------------------------------------------------------------------------------------------------------------------------
      295 -1.5574E+04  3.5247E+02 -1.7816E+04  5.6066E+03 -2.8849E+04  0.0000E+00  0.0000E+00  0.0000E+00  0.0000E+00
 147.500f -1.4000E+04  1.5291E+02 -1.2100E+03 -9.7673E+04  2.8395E+04  0.0000E+00  0.0000E+00  0.0000E+00  0.0000E+00
   4.568s  1.0833E+04  1.2435E+02  5.4266E+03  1.0853E+04  9.0000E+01  9.0000E+01  9.0000E+01  0.0000E+00  2.3807E+00

  rolling -1.5544E+04  3.3798E+02 -1.7694E+04  5.7683E+03 -2.8727E+04  0.0000E+00  0.0000E+00  0.0000E+00  0.0000E+00
 averages -1.3272E+04  1.5835E+02 -3.5245E+03 -9.9824E+04  2.8221E+04  0.0000E+00  0.0000E+00  0.0000E+00  0.0000E+00
           1.0833E+04  1.2348E+02  5.2651E+03  1.0530E+04  9.0000E+01  9.0000E+01  9.0000E+01  0.0000E+00  3.4375E+00
 ------------------------------------------------------------------------------------------------------------------------
      300 -1.5580E+04  3.5571E+02 -1.7843E+04  5.5610E+03 -2.8792E+04  0.0000E+00  0.0000E+00  0.0000E+00  0.0000E+00
 150.000f -1.4101E+04  1.5756E+02 -9.1545E+02 -9.7094E+04  2.8339E+04  0.0000E+00  0.0000E+00  0.0000E+00  0.0000E+00
   4.637s  1.0833E+04  1.2221E+02  5.3877E+03  1.0775E+04  9.0000E+01  9.0000E+01  9.0000E+01  0.0000E+00  2.2381E+00

  rolling -1.5547E+04  3.4017E+02 -1.7711E+04  5.7596E+03 -2.8767E+04  0.0000E+00  0.0000E+00  0.0000E+00  0.0000E+00
 averages -1.3350E+04  1.5876E+02 -3.2722E+03 -9.9699E+04  2.8263E+04  0.0000E+00  0.0000E+00  0.0000E+00  0.0000E+00
           1.0833E+04  1.2390E+02  5.2970E+03  1.0594E+04  9.0000E+01  9.0000E+01  9.0000E+01  0.0000E+00  3.3229E+00
 ------------------------------------------------------------------------------------------------------------------------
      305 -1.5578E+04  3.6135E+02 -1.7876E+04  5.4974E+03 -2.8721E+04  0.0000E+00  0.0000E+00  0.0000E+00  0.0000E+00
 152.500f -1.4262E+04  1.6309E+02 -3.8740E+02 -9.6270E+04  2.8267E+04  0.0000E+00  0.0000E+00  0.0000E+00  0.0000E+00
   4.704s  1.0833E+04  1.2468E+02  5.3474E+03  1.0695E+04  9.0000E+01  9.0000E+01  9.0000E+01  0.0000E+00  1.9902E+00

  rolling -1.5549E+04  3.4239E+02 -1.7727E+04  5.7446E+03 -2.8795E+04  0.0000E+00  0.0000E+00  0.0000E+00  0.0000E+00
 averages -1.3439E+04  1.5918E+02 -2.9880E+03 -9.9496E+04  2.8294E+04  0.0000E+00  0.0000E+00  0.0000E+00  0.0000E+00
           1.0833E+04  1.2437E+02  5.3236E+03  1.0647E+04  9.0000E+01  9.0000E+01  9.0000E+01  0.0000E+00  3.1926E+00
 ------------------------------------------------------------------------------------------------------------------------
      310 -1.5571E+04  3.6585E+02 -1.7898E+04  5.4360E+03 -2.8649E+04  0.0000E+00  0.0000E+00  0.0000E+00  0.0000E+00
 155.000f -1.4429E+04  1.6757E+02  1.6229E+02 -9.5458E+04  2.8193E+04  0.0000E+00  0.0000E+00  0.0000E+00  0.0000E+00
   4.777s  1.0833E+04  1.2762E+02  5.3152E+03  1.0630E+04  9.0000E+01  9.0000E+01  9.0000E+01  0.0000E+00  1.7276E+00

  rolling -1.5551E+04  3.4459E+02 -1.7743E+04  5.7242E+03 -2.8811E+04  0.0000E+00  0.0000E+00  0.0000E+00  0.0000E+00
 averages -1.3535E+04  1.5960E+02 -2.6796E+03 -9.9223E+04  2.8314E+04  0.0000E+00  0.0000E+00  0.0000E+00  0.0000E+00
           1.0833E+04  1.2485E+02  5.3444E+03  1.0689E+04  9.0000E+01  9.0000E+01  9.0000E+01  0.0000E+00  3.0498E+00
 ------------------------------------------------------------------------------------------------------------------------
      315 -1.5579E+04  3.6707E+02 -1.7913E+04  5.3816E+03 -2.8594E+04  0.0000E+00  0.0000E+00  0.0000E+00  0.0000E+00
 157.500f -1.4614E+04  1.6917E+02  6.9846E+02 -9.4728E+04  2.8134E+04  0.0000E+00  0.0000E+00  0.0000E+00  0.0000E+00
   4.843s  1.0833E+04  1.2910E+02  5.2990E+03  1.0598E+04  9.0000E+01  9.0000E+01  9.0000E+01  0.0000E+00  1.4599E+00

  rolling -1.5553E+04  3.4668E+02 -1.7758E+04  5.7000E+03 -2.8818E+04  0.0000E+00  0.0000E+00  0.0000E+00  0.0000E+00
 averages -1.3635E+04  1.6002E+02 -2.3595E+03 -9.8902E+04  2.8325E+04  0.0000E+00  0.0000E+00  0.0000E+00  0.0000E+00
           1.0833E+04  1.2526E+02  5.3598E+03  1.0720E+04  9.0000E+01  9.0000E+01  9.0000E+01  0.0000E+00  2.9004E+00
 ------------------------------------------------------------------------------------------------------------------------
 ------------------------------------------------------------------------------------------------------------------------

     step     eng_tot    temp_tot     eng_cfg     eng_vdw     eng_cou     eng_bnd     eng_ang     eng_dih     eng_tet
 time          eng_pv    temp_rot     vir_cfg     vir_vdw     vir_cou     vir_bnd     vir_ang     vir_con     vir_tet
 cpu time      volume    temp_shl     eng_shl     vir_shl       alpha        beta       gamma     vir_pmf       press

 ------------------------------------------------------------------------------------------------------------------------
      320 -1.5583E+04  3.6483E+02 -1.7903E+04  5.3339E+03 -2.8541E+04  0.0000E+00  0.0000E+00  0.0000E+00  0.0000E+00
 160.000f -1.4783E+04  1.6744E+02  1.1781E+03 -9.4085E+04  2.8074E+04  0.0000E+00  0.0000E+00  0.0000E+00  0.0000E+00
   4.911s  1.0833E+04  1.2866E+02  5.3034E+03  1.0607E+04  9.0000E+01  9.0000E+01  9.0000E+01  0.0000E+00  1.2092E+00

  rolling -1.5555E+04  3.4856E+02 -1.7772E+04  5.6739E+03 -2.8816E+04  0.0000E+00  0.0000E+00  0.0000E+00  0.0000E+00
 averages -1.3736E+04  1.6043E+02 -2.0410E+03 -9.8555E+04  2.8328E+04  0.0000E+00  0.0000E+00  0.0000E+00  0.0000E+00
           1.0833E+04  1.2558E+02  5.3709E+03  1.0742E+04  9.0000E+01  9.0000E+01  9.0000E+01  0.0000E+00  2.7505E+00
 ------------------------------------------------------------------------------------------------------------------------
      325 -1.5587E+04  3.5938E+02 -1.7873E+04  5.3033E+03 -2.8504E+04  0.0000E+00  0.0000E+00  0.0000E+00  0.0000E+00
 162.500f -1.4910E+04  1.6343E+02  1.5024E+03 -9.3664E+04  2.8031E+04  0.0000E+00  0.0000E+00  0.0000E+00  0.0000E+00
   4.980s  1.0833E+04  1.2505E+02  5.3278E+03  1.0656E+04  9.0000E+01  9.0000E+01  9.0000E+01  0.0000E+00  1.0235E+00

  rolling -1.5556E+04  3.5014E+02 -1.7783E+04  5.6475E+03 -2.8810E+04  0.0000E+00  0.0000E+00  0.0000E+00  0.0000E+00
 averages -1.3834E+04  1.6078E+02 -1.7355E+03 -9.8205E+04  2.8326E+04  0.0000E+00  0.0000E+00  0.0000E+00  0.0000E+00
           1.0833E+04  1.2576E+02  5.3792E+03  1.0758E+04  9.0000E+01  9.0000E+01  9.0000E+01  0.0000E+00  2.6055E+00
 ------------------------------------------------------------------------------------------------------------------------
      330 -1.5591E+04  3.5291E+02 -1.7836E+04  5.2976E+03 -2.8499E+04  0.0000E+00  0.0000E+00  0.0000E+00  0.0000E+00
 165.000f -1.4965E+04  1.5925E+02  1.5976E+03 -9.3567E+04  2.8019E+04  0.0000E+00  0.0000E+00  0.0000E+00  0.0000E+00
   5.047s  1.0833E+04  1.1993E+02  5.3653E+03  1.0731E+04  9.0000E+01  9.0000E+01  9.0000E+01  0.0000E+00  9.4748E-01

  rolling -1.5559E+04  3.5133E+02 -1.7793E+04  5.6223E+03 -2.8802E+04  0.0000E+00  0.0000E+00  0.0000E+00  0.0000E+00
 averages -1.3926E+04  1.6099E+02 -1.4524E+03 -9.7871E+04  2.8321E+04  0.0000E+00  0.0000E+00  0.0000E+00  0.0000E+00
           1.0833E+04  1.2574E+02  5.3864E+03  1.0773E+04  9.0000E+01  9.0000E+01  9.0000E+01  0.0000E+00  2.4697E+00
 ------------------------------------------------------------------------------------------------------------------------
      335 -1.5579E+04  3.4870E+02 -1.7797E+04  5.3107E+03 -2.8514E+04  0.0000E+00  0.0000E+00  0.0000E+00  0.0000E+00
 167.500f -1.4948E+04  1.5697E+02  1.5449E+03 -9.3711E+04  2.8069E+04  0.0000E+00  0.0000E+00  0.0000E+00  0.0000E+00
   5.117s  1.0833E+04  1.1725E+02  5.4059E+03  1.0812E+04  9.0000E+01  9.0000E+01  9.0000E+01  0.0000E+00  9.5434E-01

  rolling -1.5561E+04  3.5209E+02 -1.7801E+04  5.5991E+03 -2.8793E+04  0.0000E+00  0.0000E+00  0.0000E+00  0.0000E+00
 averages -1.4011E+04  1.6101E+02 -1.1965E+03 -9.7562E+04  2.8315E+04  0.0000E+00  0.0000E+00  0.0000E+00  0.0000E+00
           1.0833E+04  1.2551E+02  5.3935E+03  1.0787E+04  9.0000E+01  9.0000E+01  9.0000E+01  0.0000E+00  2.3455E+00
 ------------------------------------------------------------------------------------------------------------------------
      340 -1.5587E+04  3.4740E+02 -1.7797E+04  5.3352E+03 -2.8573E+04  0.0000E+00  0.0000E+00  0.0000E+00  0.0000E+00
 170.000f -1.4917E+04  1.5765E+02  1.4064E+03 -9.4004E+04  2.8131E+04  0.0000E+00  0.0000E+00  0.0000E+00  0.0000E+00
   5.184s  1.0833E+04  1.1735E+02  5.4410E+03  1.0882E+04  9.0000E+01  9.0000E+01  9.0000E+01  0.0000E+00  1.0137E+00

  rolling -1.5564E+04  3.5254E+02 -1.7806E+04  5.5782E+03 -2.8785E+04  0.0000E+00  0.0000E+00  0.0000E+00  0.0000E+00
 averages -1.4088E+04  1.6086E+02 -9.6615E+02 -9.7281E+04  2.8310E+04  0.0000E+00  0.0000E+00  0.0000E+00  0.0000E+00
           1.0833E+04  1.2519E+02  5.4009E+03  1.0802E+04  9.0000E+01  9.0000E+01  9.0000E+01  0.0000E+00  2.2327E+00
 ------------------------------------------------------------------------------------------------------------------------
      345 -1.5586E+04  3.4804E+02 -1.7800E+04  5.3608E+03 -2.8627E+04  0.0000E+00  0.0000E+00  0.0000E+00  0.0000E+00
 172.500f -1.4865E+04  1.6106E+02  1.2393E+03 -9.4315E+04  2.8194E+04  0.0000E+00  0.0000E+00  0.0000E+00  0.0000E+00
   5.259s  1.0833E+04  1.1879E+02  5.4661E+03  1.0932E+04  9.0000E+01  9.0000E+01  9.0000E+01  0.0000E+00  1.0911E+00

  rolling -1.5566E+04  3.5276E+02 -1.7810E+04  5.5592E+03 -2.8778E+04  0.0000E+00  0.0000E+00  0.0000E+00  0.0000E+00
 averages -1.4159E+04  1.6065E+02 -7.5724E+02 -9.7024E+04  2.8306E+04  0.0000E+00  0.0000E+00  0.0000E+00  0.0000E+00
           1.0833E+04  1.2483E+02  5.4084E+03  1.0817E+04  9.0000E+01  9.0000E+01  9.0000E+01  0.0000E+00  2.1295E+00
 ------------------------------------------------------------------------------------------------------------------------
      350 -1.5591E+04  3.5100E+02 -1.7824E+04  5.3659E+03 -2.8670E+04  0.0000E+00  0.0000E+00  0.0000E+00  0.0000E+00
 175.000f -1.4889E+04  1.6630E+02  1.3016E+03 -9.4370E+04  2.8253E+04  0.0000E+00  0.0000E+00  0.0000E+00  0.0000E+00
   5.326s  1.0833E+04  1.2298E+02  5.4803E+03  1.0961E+04  9.0000E+01  9.0000E+01  9.0000E+01  0.0000E+00  1.0618E+00

  rolling -1.5569E+04  3.5291E+02 -1.7813E+04  5.5408E+03 -2.8770E+04  0.0000E+00  0.0000E+00  0.0000E+00  0.0000E+00
 averages -1.4227E+04  1.6052E+02 -5.5675E+02 -9.6775E+04  2.8303E+04  0.0000E+00  0.0000E+00  0.0000E+00  0.0000E+00
           1.0833E+04  1.2454E+02  5.4152E+03  1.0830E+04  9.0000E+01  9.0000E+01  9.0000E+01  0.0000E+00  2.0297E+00
 ------------------------------------------------------------------------------------------------------------------------
      355 -1.5595E+04  3.5429E+02 -1.7848E+04  5.3494E+03 -2.8684E+04  0.0000E+00  0.0000E+00  0.0000E+00  0.0000E+00
 177.500f -1.4981E+04  1.7160E+02  1.5724E+03 -9.4151E+04  2.8283E+04  0.0000E+00  0.0000E+00  0.0000E+00  0.0000E+00
   5.398s  1.0833E+04  1.2780E+02  5.4863E+03  1.0973E+04  9.0000E+01  9.0000E+01  9.0000E+01  0.0000E+00  9.2942E-01

  rolling -1.5571E+04  3.5309E+02 -1.7817E+04  5.5213E+03 -2.8759E+04  0.0000E+00  0.0000E+00  0.0000E+00  0.0000E+00
 averages -1.4299E+04  1.6059E+02 -3.4863E+02 -9.6511E+04  2.8298E+04  0.0000E+00  0.0000E+00  0.0000E+00  0.0000E+00
           1.0833E+04  1.2443E+02  5.4205E+03  1.0841E+04  9.0000E+01  9.0000E+01  9.0000E+01  0.0000E+00  1.9257E+00
 ------------------------------------------------------------------------------------------------------------------------
 ------------------------------------------------------------------------------------------------------------------------

     step     eng_tot    temp_tot     eng_cfg     eng_vdw     eng_cou     eng_bnd     eng_ang     eng_dih     eng_tet
 time          eng_pv    temp_rot     vir_cfg     vir_vdw     vir_cou     vir_bnd     vir_ang     vir_con     vir_tet
 cpu time      volume    temp_shl     eng_shl     vir_shl       alpha        beta       gamma     vir_pmf       press

 ------------------------------------------------------------------------------------------------------------------------
      360 -1.5604E+04  3.5452E+02 -1.7859E+04  5.3227E+03 -2.8670E+04  0.0000E+00  0.0000E+00  0.0000E+00  0.0000E+00
 180.000f -1.5104E+04  1.7392E+02  1.9050E+03 -9.3799E+04  2.8282E+04  0.0000E+00  0.0000E+00  0.0000E+00  0.0000E+00
   5.465s  1.0833E+04  1.2927E+02  5.4888E+03  1.0978E+04  9.0000E+01  9.0000E+01  9.0000E+01  0.0000E+00  7.5572E-01

  rolling -1.5574E+04  3.5332E+02 -1.7822E+04  5.4996E+03 -2.8745E+04  0.0000E+00  0.0000E+00  0.0000E+00  0.0000E+00
 averages -1.4376E+04  1.6086E+02 -1.2420E+02 -9.6220E+04  2.8289E+04  0.0000E+00  0.0000E+00  0.0000E+00  0.0000E+00
           1.0833E+04  1.2451E+02  5.4238E+03  1.0848E+04  9.0000E+01  9.0000E+01  9.0000E+01  0.0000E+00  1.8131E+00
 ------------------------------------------------------------------------------------------------------------------------
      365 -1.5627E+04  3.5015E+02 -1.7854E+04  5.2915E+03 -2.8635E+04  0.0000E+00  0.0000E+00  0.0000E+00  0.0000E+00
 182.500f -1.5233E+04  1.7080E+02  2.1845E+03 -9.3389E+04  2.8220E+04  0.0000E+00  0.0000E+00  0.0000E+00  0.0000E+00
   5.538s  1.0833E+04  1.2596E+02  5.4892E+03  1.0978E+04  9.0000E+01  9.0000E+01  9.0000E+01  0.0000E+00  5.9682E-01

  rolling -1.5578E+04  3.5357E+02 -1.7827E+04  5.4752E+03 -2.8727E+04  0.0000E+00  0.0000E+00  0.0000E+00  0.0000E+00
 averages -1.4461E+04  1.6123E+02  1.2124E+02 -9.5893E+04  2.8276E+04  0.0000E+00  0.0000E+00  0.0000E+00  0.0000E+00
           1.0833E+04  1.2477E+02  5.4249E+03  1.0850E+04  9.0000E+01  9.0000E+01  9.0000E+01  0.0000E+00  1.6898E+00
 ------------------------------------------------------------------------------------------------------------------------
      370 -1.5633E+04  3.4284E+02 -1.7814E+04  5.2586E+03 -2.8557E+04  0.0000E+00  0.0000E+00  0.0000E+00  0.0000E+00
 185.000f -1.5317E+04  1.6333E+02  2.3729E+03 -9.2954E+04  2.8138E+04  0.0000E+00  0.0000E+00  0.0000E+00  0.0000E+00
   5.606s  1.0833E+04  1.1997E+02  5.4847E+03  1.0969E+04  9.0000E+01  9.0000E+01  9.0000E+01  0.0000E+00  4.7885E-01

  rolling -1.5583E+04  3.5372E+02 -1.7832E+04  5.4484E+03 -2.8705E+04  0.0000E+00  0.0000E+00  0.0000E+00  0.0000E+00
 averages -1.4552E+04  1.6149E+02  3.7959E+02 -9.5538E+04  2.8257E+04  0.0000E+00  0.0000E+00  0.0000E+00  0.0000E+00
           1.0833E+04  1.2503E+02  5.4243E+03  1.0849E+04  9.0000E+01  9.0000E+01  9.0000E+01  0.0000E+00  1.5597E+00
 ------------------------------------------------------------------------------------------------------------------------
      375 -1.5635E+04  3.3656E+02 -1.7776E+04  5.2249E+03 -2.8470E+04  0.0000E+00  0.0000E+00  0.0000E+00  0.0000E+00
 187.500f -1.5371E+04  1.5593E+02  2.4982E+03 -9.2510E+04  2.8039E+04  0.0000E+00  0.0000E+00  0.0000E+00  0.0000E+00
   5.673s  1.0833E+04  1.1571E+02  5.4697E+03  1.0939E+04  9.0000E+01  9.0000E+01  9.0000E+01  0.0000E+00  3.9911E-01

  rolling -1.5587E+04  3.5352E+02 -1.7835E+04  5.4214E+03 -2.8679E+04  0.0000E+00  0.0000E+00  0.0000E+00  0.0000E+00
 averages -1.4640E+04  1.6157E+02  6.2801E+02 -9.5180E+04  2.8233E+04  0.0000E+00  0.0000E+00  0.0000E+00  0.0000E+00
           1.0833E+04  1.2490E+02  5.4225E+03  1.0845E+04  9.0000E+01  9.0000E+01  9.0000E+01  0.0000E+00  1.4329E+00
 ------------------------------------------------------------------------------------------------------------------------
      380 -1.5644E+04  3.3518E+02 -1.7776E+04  5.1886E+03 -2.8408E+04  0.0000E+00  0.0000E+00  0.0000E+00  0.0000E+00
 190.000f -1.5438E+04  1.5258E+02  2.6763E+03 -9.2032E+04  2.7959E+04  0.0000E+00  0.0000E+00  0.0000E+00  0.0000E+00
   5.740s  1.0833E+04  1.1757E+02  5.4437E+03  1.0887E+04  9.0000E+01  9.0000E+01  9.0000E+01  0.0000E+00  3.1116E-01

  rolling -1.5591E+04  3.5293E+02 -1.7836E+04  5.3955E+03 -2.8651E+04  0.0000E+00  0.0000E+00  0.0000E+00  0.0000E+00
 averages -1.4722E+04  1.6156E+02  8.5364E+02 -9.4834E+04  2.8207E+04  0.0000E+00  0.0000E+00  0.0000E+00  0.0000E+00
           1.0833E+04  1.2431E+02  5.4198E+03  1.0840E+04  9.0000E+01  9.0000E+01  9.0000E+01  0.0000E+00  1.3153E+00
 ------------------------------------------------------------------------------------------------------------------------
      385 -1.5651E+04  3.3773E+02 -1.7800E+04  5.1562E+03 -2.8371E+04  0.0000E+00  0.0000E+00  0.0000E+00  0.0000E+00
 192.500f -1.5496E+04  1.5338E+02  2.8557E+03 -9.1601E+04  2.7900E+04  0.0000E+00  0.0000E+00  0.0000E+00  0.0000E+00
   5.807s  1.0833E+04  1.2389E+02  5.4153E+03  1.0831E+04  9.0000E+01  9.0000E+01  9.0000E+01  0.0000E+00  2.3448E-01

  rolling -1.5596E+04  3.5221E+02 -1.7836E+04  5.3705E+03 -2.8623E+04  0.0000E+00  0.0000E+00  0.0000E+00  0.0000E+00
 averages -1.4800E+04  1.6165E+02  1.0646E+03 -9.4499E+04  2.8179E+04  0.0000E+00  0.0000E+00  0.0000E+00  0.0000E+00
           1.0833E+04  1.2366E+02  5.4165E+03  1.0833E+04  9.0000E+01  9.0000E+01  9.0000E+01  0.0000E+00  1.2040E+00
 ------------------------------------------------------------------------------------------------------------------------
      390 -1.5655E+04  3.3858E+02 -1.7809E+04  5.1450E+03 -2.8353E+04  0.0000E+00  0.0000E+00  0.0000E+00  0.0000E+00
 195.000f -1.5497E+04  1.5522E+02  2.8460E+03 -9.1436E+04  2.7862E+04  0.0000E+00  0.0000E+00  0.0000E+00  0.0000E+00
   5.876s  1.0833E+04  1.2676E+02  5.3987E+03  1.0797E+04  9.0000E+01  9.0000E+01  9.0000E+01  0.0000E+00  2.3896E-01

  rolling -1.5600E+04  3.5151E+02 -1.7836E+04  5.3460E+03 -2.8595E+04  0.0000E+00  0.0000E+00  0.0000E+00  0.0000E+00
 averages -1.4876E+04  1.6186E+02  1.2708E+03 -9.4170E+04  2.8151E+04  0.0000E+00  0.0000E+00  0.0000E+00  0.0000E+00
           1.0833E+04  1.2331E+02  5.4132E+03  1.0826E+04  9.0000E+01  9.0000E+01  9.0000E+01  0.0000E+00  1.0949E+00
 ------------------------------------------------------------------------------------------------------------------------
      395 -1.5657E+04  3.3571E+02 -1.7792E+04  5.1511E+03 -2.8348E+04  0.0000E+00  0.0000E+00  0.0000E+00  0.0000E+00
 197.500f -1.5467E+04  1.5549E+02  2.7105E+03 -9.1492E+04  2.7842E+04  0.0000E+00  0.0000E+00  0.0000E+00  0.0000E+00
   5.943s  1.0833E+04  1.2387E+02  5.4044E+03  1.0809E+04  9.0000E+01  9.0000E+01  9.0000E+01  0.0000E+00  2.8799E-01

[...]
   -7.3500  2.378862E-01  6.246400E+01
   -7.2500  2.372602E-01  6.549600E+01
   -7.1500  2.494675E-01  6.868400E+01
   -7.0500  1.746586E-01  7.091600E+01
   -6.9500  1.812317E-01  7.323200E+01
   -6.8500  2.244269E-01  7.610000E+01
   -6.7500  2.043943E-01  7.871200E+01
   -6.6500  2.015773E-01  8.128800E+01
   -6.5500  3.029919E-01  8.516000E+01
   -6.4500  2.244269E-01  8.802800E+01
   -6.3500  2.544756E-01  9.128000E+01
   -6.2500  2.020468E-01  9.386200E+01
   -6.1500  2.308435E-01  9.681200E+01
   -6.0500  2.407033E-01  9.988800E+01
   -5.9500  2.205143E-01  1.027060E+02
   -5.8500  1.790407E-01  1.049940E+02
   -5.7500  1.813882E-01  1.073120E+02
   -5.6500  2.156626E-01  1.100680E+02
   -5.5500  1.677724E-01  1.122120E+02
   -5.4500  1.807622E-01  1.145220E+02
   -5.3500  2.214533E-01  1.173520E+02
   -5.2500  2.813943E-01  1.209480E+02
   -5.1500  1.907785E-01  1.233860E+02
   -5.0500  1.917175E-01  1.258360E+02
   -4.9500  1.510264E-01  1.277660E+02
   -4.8500  1.460183E-01  1.296320E+02
   -4.7500  2.322521E-01  1.326000E+02
   -4.6500  2.045508E-01  1.352140E+02
   -4.5500  1.668334E-01  1.373460E+02
   -4.4500  1.960996E-01  1.398520E+02
   -4.3500  2.089330E-01  1.425220E+02
   -4.2500  1.596342E-01  1.445620E+02
   -4.1500  1.950041E-01  1.470540E+02
   -4.0500  1.934391E-01  1.495260E+02
   -3.9500  2.607358E-01  1.528580E+02
   -3.8500  2.551017E-01  1.561180E+02
   -3.7500  2.738822E-01  1.596180E+02
   -3.6500  2.878110E-01  1.632960E+02
   -3.5500  2.202013E-01  1.661100E+02
   -3.4500  1.575996E-01  1.681240E+02
   -3.3500  2.144106E-01  1.708640E+02
   -3.2500  2.986098E-01  1.746800E+02
   -3.1500  2.081504E-01  1.773400E+02
   -3.0500  2.499370E-01  1.805340E+02
   -2.9500  1.867094E-01  1.829200E+02
   -2.8500  1.155000E-01  1.843960E+02
   -2.7500  1.446098E-01  1.862440E+02
   -2.6500  1.654248E-01  1.883580E+02
   -2.5500  1.896830E-01  1.907820E+02
   -2.4500  1.935956E-01  1.932560E+02
   -2.3500  2.691870E-01  1.966960E+02
   -2.2500  2.652744E-01  2.000860E+02
   -2.1500  2.566667E-01  2.033660E+02
   -2.0500  2.109675E-01  2.060620E+02
   -1.9500  1.726240E-01  2.082680E+02
   -1.8500  1.493049E-01  2.101760E+02
   -1.7500  1.831098E-01  2.125160E+02
   -1.6500  1.813882E-01  2.148340E+02
   -1.5500  1.507134E-01  2.167600E+02
   -1.4500  2.150366E-01  2.195080E+02
   -1.3500  1.817012E-01  2.218300E+02
   -1.2500  1.810752E-01  2.241440E+02
   -1.1500  1.134655E-01  2.255940E+02
   -1.0500  1.458618E-01  2.274580E+02
   -0.9500  1.169086E-01  2.289520E+02
   -0.8500  1.793537E-01  2.312440E+02
   -0.7500  1.540000E-01  2.332120E+02
   -0.6500  1.450793E-01  2.350660E+02
   -0.5500  2.252094E-01  2.379440E+02
   -0.4500  2.904716E-01  2.416560E+02
   -0.3500  3.128517E-01  2.456540E+02
   -0.2500  3.383618E-01  2.499780E+02
   -0.1500  3.760793E-01  2.547840E+02
   -0.0500  3.760793E-01  2.595900E+02
    0.0500  2.663700E-01  2.629940E+02
    0.1500  1.970386E-01  2.655120E+02
    0.2500  1.885874E-01  2.679220E+02
    0.3500  1.442968E-01  2.697660E+02
    0.4500  1.588516E-01  2.717960E+02
    0.5500  1.683984E-01  2.739480E+02
    0.6500  1.339675E-01  2.756600E+02
    0.7500  1.194126E-01  2.771860E+02
    0.8500  1.360021E-01  2.789240E+02
    0.9500  1.921870E-01  2.813800E+02
    1.0500  2.264614E-01  2.842740E+02
    1.1500  1.759106E-01  2.865220E+02
    1.2500  1.937521E-01  2.889980E+02
    1.3500  1.777886E-01  2.912700E+02
    1.4500  2.092460E-01  2.939440E+02
    1.5500  2.344431E-01  2.969400E+02
    1.6500  1.860834E-01  2.993180E+02
    1.7500  2.355387E-01  3.023280E+02
    1.8500  3.017399E-01  3.061840E+02
    1.9500  2.674655E-01  3.096020E+02
    2.0500  1.813882E-01  3.119200E+02
    2.1500  1.729370E-01  3.141300E+02
    2.2500  2.394513E-01  3.171900E+02
    2.3500  2.087765E-01  3.198580E+02
    2.4500  2.040813E-01  3.224660E+02
    2.5500  1.971952E-01  3.249860E+02
    2.6500  1.907785E-01  3.274240E+02
    2.7500  1.826403E-01  3.297580E+02
    2.8500  1.774756E-01  3.320260E+02
    2.9500  2.244269E-01  3.348940E+02
    3.0500  1.457053E-01  3.367560E+02
    3.1500  2.231748E-01  3.396080E+02
    3.2500  2.122195E-01  3.423200E+02
    3.3500  3.051830E-01  3.462200E+02
    3.4500  2.316260E-01  3.491800E+02
    3.5500  2.220793E-01  3.520180E+02
    3.6500  1.669899E-01  3.541520E+02
    3.7500  1.267683E-01  3.557720E+02
    3.8500  1.430447E-01  3.576000E+02
    3.9500  1.358455E-01  3.593360E+02
    4.0500  1.705895E-01  3.615160E+02
    4.1500  1.752846E-01  3.637560E+02
    4.2500  1.489919E-01  3.656600E+02
    4.3500  1.795102E-01  3.679540E+02
    4.4500  2.007947E-01  3.705200E+02
    4.5500  2.187927E-01  3.733160E+02
    4.6500  1.821708E-01  3.756440E+02
    4.7500  1.427317E-01  3.774680E+02
    4.8500  1.618252E-01  3.795360E+02
    4.9500  1.787277E-01  3.818200E+02
    5.0500  1.931260E-01  3.842880E+02
    5.1500  2.372602E-01  3.873200E+02
    5.2500  2.084634E-01  3.899840E+02
    5.3500  2.419553E-01  3.930760E+02
    5.4500  2.629269E-01  3.964360E+02
    5.5500  1.890569E-01  3.988520E+02
    5.6500  2.438334E-01  4.019680E+02
    5.7500  2.790468E-01  4.055340E+02
    5.8500  2.604228E-01  4.088620E+02
    5.9500  2.942277E-01  4.126220E+02
    6.0500  1.956301E-01  4.151220E+02
    6.1500  1.313069E-01  4.168000E+02
    6.2500  1.433577E-01  4.186320E+02
    6.3500  1.560346E-01  4.206260E+02
    6.4500  1.712155E-01  4.228140E+02
    6.5500  1.176911E-01  4.243180E+02
    6.6500  1.696504E-01  4.264860E+02
    6.7500  2.392948E-01  4.295440E+02
    6.8500  2.411728E-01  4.326260E+02
    6.9500  2.173842E-01  4.354040E+02
    7.0500  2.284960E-01  4.383240E+02
    7.1500  1.161260E-01  4.398080E+02
    7.2500  1.899960E-01  4.422360E+02
    7.3500  1.529045E-01  4.441900E+02
    7.4500  1.887439E-01  4.466020E+02
    7.5500  1.984472E-01  4.491380E+02
    7.6500  2.029858E-01  4.517320E+02
    7.7500  1.475834E-01  4.536180E+02
    7.8500  1.560346E-01  4.556120E+02
    7.9500  1.925000E-01  4.580720E+02
    8.0500  1.937521E-01  4.605480E+02
    8.1500  1.935956E-01  4.630220E+02
    8.2500  2.103415E-01  4.657100E+02
    8.3500  1.890569E-01  4.681260E+02
    8.4500  1.987602E-01  4.706660E+02
    8.5500  2.011078E-01  4.732360E+02
    8.6500  1.779451E-01  4.755100E+02
    8.7500  2.070549E-01  4.781560E+02
    8.8500  2.374167E-01  4.811900E+02
    8.9500  3.120692E-01  4.851780E+02
    9.0500  3.211464E-01  4.892820E+02
    9.1500  2.882805E-01  4.929660E+02
    9.2500  2.461809E-01  4.961120E+02
    9.3500  2.104980E-01  4.988020E+02
    9.4500  2.023598E-01  5.013880E+02
    9.5500  1.508699E-01  5.033160E+02
    9.6500  1.442968E-01  5.051600E+02
    9.7500  1.455488E-01  5.070200E+02
    9.8500  8.607725E-02  5.081200E+02
    9.9500  7.105286E-02  5.090280E+02
   10.0500  5.274188E-02  5.097020E+02
   10.1500  5.055082E-02  5.103480E+02
   10.2500  5.884554E-02  5.111000E+02
   10.3500  1.940651E-02  5.113480E+02
   10.4500  3.599594E-03  5.113940E+02
   10.5500  1.267683E-02  5.115560E+02
   10.6500  3.756098E-03  5.116040E+02
   10.7500  5.477643E-03  5.116740E+02
   10.8500  7.981708E-03  5.117760E+02
   10.9500  1.095529E-03  5.117900E+02
   11.0500  1.565041E-03  5.118100E+02
   11.1500  6.573172E-03  5.118940E+02
   11.2500  6.886180E-03  5.119820E+02
   11.3500  1.408537E-03  5.120000E+02
   11.4500  0.000000E+00  5.120000E+02
   11.5500  0.000000E+00  5.120000E+02
   11.6500  0.000000E+00  5.120000E+02
   11.7500  0.000000E+00  5.120000E+02
   11.8500  0.000000E+00  5.120000E+02
   11.9500  0.000000E+00  5.120000E+02
   12.0500  0.000000E+00  5.120000E+02
   12.1500  0.000000E+00  5.120000E+02
   12.2500  0.000000E+00  5.120000E+02
   12.3500  0.000000E+00  5.120000E+02
   12.4500  0.000000E+00  5.120000E+02
   12.5500  0.000000E+00  5.120000E+02
   12.6500  0.000000E+00  5.120000E+02
   12.7500  0.000000E+00  5.120000E+02
   12.8500  0.000000E+00  5.120000E+02
   12.9500  0.000000E+00  5.120000E+02
   13.0500  0.000000E+00  5.120000E+02
   13.1500  0.000000E+00  5.120000E+02
   13.2500  0.000000E+00  5.120000E+02
   13.3500  0.000000E+00  5.120000E+02
   13.4500  0.000000E+00  5.120000E+02
   13.5500  0.000000E+00  5.120000E+02
   13.6500  0.000000E+00  5.120000E+02
   13.7500  0.000000E+00  5.120000E+02
   13.8500  0.000000E+00  5.120000E+02
   13.9500  0.000000E+00  5.120000E+02
   14.0500  0.000000E+00  5.120000E+02
   14.1500  0.000000E+00  5.120000E+02
   14.2500  0.000000E+00  5.120000E+02
   14.3500  0.000000E+00  5.120000E+02
   14.4500  0.000000E+00  5.120000E+02

rho(r)  :O_shell 

        r      rho         n(r)

  -14.4500  0.000000E+00  0.000000E+00
  -14.3500  0.000000E+00  0.000000E+00
  -14.2500  0.000000E+00  0.000000E+00
  -14.1500  0.000000E+00  0.000000E+00
  -14.0500  0.000000E+00  0.000000E+00
  -13.9500  0.000000E+00  0.000000E+00
  -13.8500  0.000000E+00  0.000000E+00
  -13.7500  0.000000E+00  0.000000E+00
  -13.6500  0.000000E+00  0.000000E+00
  -13.5500  0.000000E+00  0.000000E+00
  -13.4500  0.000000E+00  0.000000E+00
  -13.3500  0.000000E+00  0.000000E+00
  -13.2500  0.000000E+00  0.000000E+00
  -13.1500  0.000000E+00  0.000000E+00
  -13.0500  0.000000E+00  0.000000E+00
  -12.9500  0.000000E+00  0.000000E+00
  -12.8500  0.000000E+00  0.000000E+00
  -12.7500  0.000000E+00  0.000000E+00
  -12.6500  0.000000E+00  0.000000E+00
  -12.5500  0.000000E+00  0.000000E+00
  -12.4500  0.000000E+00  0.000000E+00
  -12.3500  0.000000E+00  0.000000E+00
  -12.2500  0.000000E+00  0.000000E+00
  -12.1500  0.000000E+00  0.000000E+00
  -12.0500  0.000000E+00  0.000000E+00
  -11.9500  0.000000E+00  0.000000E+00
  -11.8500  0.000000E+00  0.000000E+00
  -11.7500  0.000000E+00  0.000000E+00
  -11.6500  0.000000E+00  0.000000E+00
  -11.5500  0.000000E+00  0.000000E+00
  -11.4500  0.000000E+00  0.000000E+00
  -11.3500  0.000000E+00  0.000000E+00
  -11.2500  0.000000E+00  0.000000E+00
  -11.1500  0.000000E+00  0.000000E+00
  -11.0500  0.000000E+00  0.000000E+00
  -10.9500  0.000000E+00  0.000000E+00
  -10.8500  0.000000E+00  0.000000E+00
  -10.7500  0.000000E+00  0.000000E+00
  -10.6500  0.000000E+00  0.000000E+00
  -10.5500  4.695123E-04  6.000000E-03
  -10.4500  5.164635E-03  7.200000E-02
  -10.3500  4.851627E-03  1.340000E-01
  -10.2500  3.443090E-03  1.780000E-01
  -10.1500  2.723171E-02  5.260000E-01
  -10.0500  1.596342E-02  7.300000E-01
   -9.9500  2.770122E-02  1.084000E+00
   -9.8500  3.834350E-02  1.574000E+00
   -9.7500  6.510570E-02  2.406000E+00
   -9.6500  7.402643E-02  3.352000E+00
   -9.5500  1.241077E-01  4.938000E+00
   -9.4500  6.338416E-02  5.748000E+00
   -9.3500  8.998985E-02  6.898000E+00
   -9.2500  5.790651E-02  7.638000E+00
   -9.1500  1.004756E-01  8.922000E+00
   -9.0500  1.311504E-01  1.059800E+01
   -8.9500  9.640652E-02  1.183000E+01
   -8.8500  8.529473E-02  1.292000E+01
   -8.7500  5.915855E-02  1.367600E+01
   -8.6500  9.906709E-02  1.494200E+01
   -8.5500  1.062663E-01  1.630000E+01
   -8.4500  1.000061E-01  1.757800E+01
   -8.3500  9.984961E-02  1.885400E+01
   -8.2500  9.781505E-02  2.010400E+01
   -8.1500  7.997359E-02  2.112600E+01
   -8.0500  8.185164E-02  2.217200E+01
   -7.9500  8.670326E-02  2.328000E+01
   -7.8500  9.687603E-02  2.451800E+01
   -7.7500  1.115874E-01  2.594400E+01
   -7.6500  1.422622E-01  2.776200E+01
   -7.5500  7.825204E-02  2.876200E+01
   -7.4500  8.826831E-02  2.989000E+01
   -7.3500  1.264553E-01  3.150600E+01
   -7.2500  7.700001E-02  3.249000E+01
   -7.1500  7.465245E-02  3.344400E+01
   -7.0500  5.540245E-02  3.415200E+01
   -6.9500  7.324391E-02  3.508800E+01
   -6.8500  5.133334E-02  3.574400E+01
   -6.7500  8.232115E-02  3.679600E+01
   -6.6500  1.422622E-01  3.861400E+01
   -6.5500  1.784147E-01  4.089400E+01
   -6.4500  1.093964E-01  4.229200E+01
   -6.3500  1.020407E-01  4.359600E+01
   -6.2500  1.095529E-01  4.499600E+01
   -6.1500  1.480529E-01  4.688800E+01
   -6.0500  1.605732E-01  4.894000E+01
   -5.9500  1.306809E-01  5.061000E+01
   -5.8500  1.306809E-01  5.228000E+01
   -5.7500  1.209777E-01  5.382600E+01
   -5.6500  1.341240E-01  5.554000E+01
   -5.5500  1.062663E-01  5.689800E+01
   -5.4500  8.545123E-02  5.799000E+01
   -5.3500  7.496546E-02  5.894800E+01
   -5.2500  1.003191E-01  6.023000E+01
   -5.1500  1.095529E-01  6.163000E+01
   -5.0500  1.416362E-01  6.344000E+01
   -4.9500  7.966058E-02  6.445800E+01
   -4.8500  7.966058E-02  6.547600E+01
   -4.7500  6.776627E-02  6.634200E+01
   -4.6500  9.875408E-02  6.760400E+01
   -4.5500  9.625001E-02  6.883400E+01
   -4.4500  8.623375E-02  6.993600E+01
   -4.3500  5.837602E-02  7.068200E+01
   -4.2500  6.604472E-02  7.152600E+01
   -4.1500  7.981708E-02  7.254600E+01
   -4.0500  7.512196E-02  7.350600E+01
   -3.9500  8.247765E-02  7.456000E+01
   -3.8500  8.889432E-02  7.569600E+01
   -3.7500  7.136586E-02  7.660800E+01
   -3.6500  1.012581E-01  7.790200E+01
   -3.5500  8.529473E-02  7.899200E+01
   -3.4500  1.248903E-01  8.058800E+01
   -3.3500  1.768496E-01  8.284800E+01
   -3.2500  2.164452E-01  8.561400E+01
   -3.1500  1.139350E-01  8.707000E+01
   -3.0500  1.358455E-01  8.880600E+01
   -2.9500  2.133151E-01  9.153200E+01
   -2.8500  1.572866E-01  9.354200E+01
   -2.7500  1.084573E-01  9.492800E+01
   -2.6500  1.602602E-01  9.697600E+01
   -2.5500  1.258293E-01  9.858400E+01
   -2.4500  9.593701E-02  9.981000E+01
   -2.3500  9.531099E-02  1.010280E+02
   -2.2500  8.576424E-02  1.021240E+02
   -2.1500  4.241261E-02  1.026660E+02
   -2.0500  2.504065E-02  1.029860E+02
   -1.9500  2.535366E-02  1.033100E+02
   -1.8500  8.607725E-03  1.034200E+02
   -1.7500  3.130082E-03  1.034600E+02
   -1.6500  1.611992E-02  1.036660E+02
   -1.5500  7.559147E-02  1.046320E+02
   -1.4500  6.447968E-02  1.054560E+02
   -1.3500  1.275508E-01  1.070860E+02
   -1.2500  1.405407E-01  1.088820E+02
   -1.1500  1.671464E-01  1.110180E+02
   -1.0500  1.724675E-01  1.132220E+02
   -0.9500  1.406972E-01  1.150200E+02
   -0.8500  1.311504E-01  1.166960E+02
   -0.7500  1.433577E-01  1.185280E+02
   -0.6500  1.057968E-01  1.198800E+02
   -0.5500  1.131525E-01  1.213260E+02
   -0.4500  6.870529E-02  1.222040E+02
   -0.3500  9.578050E-02  1.234280E+02
   -0.2500  7.230489E-02  1.243520E+02
   -0.1500  6.541871E-02  1.251880E+02
   -0.0500  8.983335E-02  1.263360E+02
    0.0500  1.303679E-01  1.280020E+02
    0.1500  1.093964E-01  1.294000E+02
    0.2500  1.236382E-01  1.309800E+02
    0.3500  1.233252E-01  1.325560E+02
    0.4500  1.460183E-01  1.344220E+02
    0.5500  1.532175E-01  1.363800E+02
    0.6500  1.205081E-01  1.379200E+02
    0.7500  1.175346E-01  1.394220E+02
    0.8500  1.262988E-01  1.410360E+02
    0.9500  1.180041E-01  1.425440E+02
    1.0500  6.072359E-02  1.433200E+02
    1.1500  6.745326E-02  1.441820E+02
    1.2500  9.124188E-02  1.453480E+02
    1.3500  8.294717E-02  1.464080E+02
    1.4500  5.540245E-02  1.471160E+02
    1.5500  4.366464E-02  1.476740E+02
    1.6500  4.303862E-02  1.482240E+02
    1.7500  4.178659E-02  1.487580E+02
    1.8500  9.077237E-02  1.499180E+02
    1.9500  9.562400E-02  1.511400E+02
    2.0500  1.292724E-01  1.527920E+02
    2.1500  1.461748E-01  1.546600E+02
    2.2500  1.646423E-01  1.567640E+02
    2.3500  1.748151E-01  1.589980E+02
    2.4500  1.377236E-01  1.607580E+02
    2.5500  1.309939E-01  1.624320E+02
    2.6500  1.267683E-01  1.640520E+02
    2.7500  7.872156E-02  1.650580E+02
    2.8500  7.277440E-02  1.659880E+02
    2.9500  1.064228E-01  1.673480E+02
    3.0500  1.358455E-01  1.690840E+02
    3.1500  1.153435E-01  1.705580E+02
    3.2500  8.013009E-02  1.715820E+02
    3.3500  1.333415E-01  1.732860E+02
    3.4500  1.067358E-01  1.746500E+02
    3.5500  7.543497E-02  1.756140E+02
    3.6500  7.105286E-02  1.765220E+02
    3.7500  5.978456E-02  1.772860E+02
    3.8500  6.197562E-02  1.780780E+02
    3.9500  6.541871E-02  1.789140E+02
    4.0500  3.552643E-02  1.793680E+02
    4.1500  6.760977E-02  1.802320E+02
    4.2500  7.105286E-02  1.811400E+02
    4.3500  9.969310E-02  1.824140E+02
    4.4500  9.061587E-02  1.835720E+02
    4.5500  9.437196E-02  1.847780E+02
    4.6500  8.560774E-02  1.858720E+02
    4.7500  1.050142E-01  1.872140E+02
    4.8500  1.203516E-01  1.887520E+02
    4.9500  9.484148E-02  1.899640E+02
    5.0500  9.844107E-02  1.912220E+02
    5.1500  8.873782E-02  1.923560E+02
    5.2500  1.065793E-01  1.937180E+02
    5.3500  1.206647E-01  1.952600E+02
    5.4500  1.264553E-01  1.968760E+02
    5.5500  1.097094E-01  1.982780E+02
    5.6500  1.529045E-01  2.002320E+02
    5.7500  1.356890E-01  2.019660E+02
    5.8500  1.571301E-01  2.039740E+02
    5.9500  1.054838E-01  2.053220E+02
    6.0500  1.150305E-01  2.067920E+02
    6.1500  1.305244E-01  2.084600E+02
    6.2500  1.627643E-01  2.105400E+02
    6.3500  9.984961E-02  2.118160E+02
    6.4500  8.279066E-02  2.128740E+02
    6.5500  8.701627E-02  2.139860E+02
    6.6500  9.797156E-02  2.152380E+02
    6.7500  5.383741E-02  2.159260E+02
    6.8500  4.710773E-02  2.165280E+02
    6.9500  6.228863E-02  2.173240E+02
    7.0500  1.076748E-01  2.187000E+02
    7.1500  9.405896E-02  2.199020E+02
    7.2500  8.310367E-02  2.209640E+02
    7.3500  7.527847E-02  2.219260E+02
    7.4500  4.992480E-02  2.225640E+02
    7.5500  4.069106E-02  2.230840E+02
    7.6500  4.037805E-02  2.236000E+02
    7.7500  4.820326E-02  2.242160E+02
    7.8500  8.732928E-02  2.253320E+02
    7.9500  7.246139E-02  2.262580E+02
    8.0500  9.499798E-02  2.274720E+02
    8.1500  9.092887E-02  2.286340E+02
    8.2500  9.484148E-02  2.298460E+02
    8.3500  9.249392E-02  2.310280E+02
    8.4500  1.793537E-01  2.333200E+02
    8.5500  1.028232E-01  2.346340E+02
    8.6500  1.388191E-01  2.364080E+02
    8.7500  1.550956E-01  2.383900E+02
    8.8500  1.627643E-01  2.404700E+02
    8.9500  1.909350E-01  2.429100E+02
    9.0500  1.486789E-01  2.448100E+02
    9.1500  1.075183E-01  2.461840E+02
    9.2500  1.037622E-01  2.475100E+02
    9.3500  1.370976E-01  2.492620E+02
    9.4500  1.205081E-01  2.508020E+02
    9.5500  8.263416E-02  2.518580E+02
    9.6500  6.620123E-02  2.527040E+02
    9.7500  5.540245E-02  2.534120E+02
    9.8500  3.239635E-02  2.538260E+02
    9.9500  3.349187E-02  2.542540E+02
   10.0500  2.551017E-02  2.545800E+02
   10.1500  2.723171E-02  2.549280E+02
   10.2500  1.658943E-02  2.551400E+02
   10.3500  3.083131E-02  2.555340E+02
   10.4500  1.095529E-02  2.556740E+02
   10.5500  3.756098E-03  2.557220E+02
   10.6500  8.764229E-03  2.558340E+02
   10.7500  4.225610E-03  2.558880E+02
   10.8500  2.817074E-03  2.559240E+02
   10.9500  1.095529E-03  2.559380E+02
   11.0500  1.252033E-03  2.559540E+02
   11.1500  2.347561E-03  2.559840E+02
   11.2500  1.252033E-03  2.560000E+02
   11.3500  0.000000E+00  2.560000E+02
   11.4500  0.000000E+00  2.560000E+02
   11.5500  0.000000E+00  2.560000E+02
   11.6500  0.000000E+00  2.560000E+02
   11.7500  0.000000E+00  2.560000E+02
   11.8500  0.000000E+00  2.560000E+02
   11.9500  0.000000E+00  2.560000E+02
   12.0500  0.000000E+00  2.560000E+02
   12.1500  0.000000E+00  2.560000E+02
   12.2500  0.000000E+00  2.560000E+02
   12.3500  0.000000E+00  2.560000E+02
   12.4500  0.000000E+00  2.560000E+02
   12.5500  0.000000E+00  2.560000E+02
   12.6500  0.000000E+00  2.560000E+02
   12.7500  0.000000E+00  2.560000E+02
   12.8500  0.000000E+00  2.560000E+02
   12.9500  0.000000E+00  2.560000E+02
   13.0500  0.000000E+00  2.560000E+02
   13.1500  0.000000E+00  2.560000E+02
   13.2500  0.000000E+00  2.560000E+02
   13.3500  0.000000E+00  2.560000E+02
   13.4500  0.000000E+00  2.560000E+02
   13.5500  0.000000E+00  2.560000E+02
   13.6500  0.000000E+00  2.560000E+02
   13.7500  0.000000E+00  2.560000E+02
   13.8500  0.000000E+00  2.560000E+02
   13.9500  0.000000E+00  2.560000E+02
   14.0500  0.000000E+00  2.560000E+02
   14.1500  0.000000E+00  2.560000E+02
   14.2500  0.000000E+00  2.560000E+02
   14.3500  0.000000E+00  2.560000E+02
   14.4500  0.000000E+00  2.560000E+02

 time elapsed since job start =           7.451 seconds

