
                    DL_POLY Classic 1.2

                              Running on    8 nodes


 ************************************************************************************************************************
 ************************************************************************************************************************
 ************************************************************************************************************************
 ***************     TEST19: SODIUM CHLORIDE MOLECULE IN WATER                                            ***************
 ************************************************************************************************************************
 ************************************************************************************************************************
 ************************************************************************************************************************


 SIMULATION CONTROL PARAMETERS


 leapfrog verlet integration selected

 Nose-Hoover  (Melchionna) isotropic N-P-T 
 thermostat relaxation time       1.0000E+00
 barostat relaxation time         5.0000E+00

 simulation temperature           2.9500E+02

 simulation pressure (katm)       0.0000E+00

 selected number of timesteps         5000

 equilibration period                 1000

 multiple timestep interval              1

 temperature scaling on
 temperature scaling interval           10

 data printing interval                100

 data stacking interval                100

 statistics file interval              100


 radial distribution functions on 
 g(r) collection interval               10
 g(r) bin width                   5.0000E-02

 simulation timestep              5.0000E-04

 real space cut off               8.0000E+00

 border width of Verlet shell     1.2000E+00

 Ewald sum  precision             1.0000E-05

 Electrostatics : Ewald sum  

 Ewald convergence parameter      3.6037E-01
 Ewald kmax1 kmax2 kmax3         6    6    6

 force capping :                  1.0000E+04 kT/A

 tolerance for Quaternions        1.0000E-05

 g(r) printing option on      

 user allocated job time (d)     11.5741

 job closure time        (s)      20.000


SYSTEM SPECIFICATION

 energy units=kcal/ mol 


 number of molecular types               3

 molecular species type                  1


 name of species:             SODIUM CHLORIDE                         

 number of molecules                     1

 number of atoms/sites                   2


 atomic characteristics:

                      site     name          mass        charge    repeat    freeze

                         1     Na+         22.98980     1.00000         1         0
                         2     Cl-         35.45300    -1.00000         1         0

 molecular species type                  2


 name of species:             SPC WATER                               

 number of molecules                    70

 number of atoms/sites                   3


 atomic characteristics:

                      site     name          mass        charge    repeat    freeze

                         3     OW          15.99940    -0.73000         1         0
                         4     HW           1.00797     0.36500         1         0
                         5     HW           1.00797     0.36500         1         0

 number of bond constraints              3


 constraint bond details:

                          index     index  bondlength

                              1         2    1.030000
                              1         3    1.030000
                              2         3    1.681982

 molecular species type                  3


 name of species:             SPC WATER                               

 number of molecules                    69

 number of atoms/sites                   3


 atomic characteristics:

                      site     name          mass        charge    repeat    freeze

                         6     OW          15.99940    -0.73000         1         0
                         7     HW           1.00797     0.36500         1         0
                         8     HW           1.00797     0.36500         1         0

 number of rigid units                   1

 rigid body details:

                           unit   indices

                              1         1         2         3


 number of specified pair potentials         6


                atom 1  atom 2      key                              parameters


                OW      OW        lj       1.60000E-01  3.19600E+00
                Na+     Na+       lj       1.30000E-01  2.35000E+00
                Cl-     Cl-       lj       1.00000E-01  4.45000E+00
                OW      Na+       lj       1.44222E-01  2.77300E+00
                OW      Cl-       lj       1.26491E-01  3.82300E+00
                Na+     Cl-       lj       1.14018E-01  3.40000E+00

  *** warning - undefined atom-atom interactions set to zero ***

 configuration file name: 

          TEST CASE 19: SODIUM CHLORIDE MOLECULE IN WATER                                 


 selected image convention               1


 simulation cell vectors


                        17.240198    0.000000    0.000000
                         0.000000   17.240198    0.000000
                         0.000000    0.000000   17.240198


 system volume            5124.20783104    


             summary of rigid body set up

 group of type          1
             total mass           18.0153400000
             rot. inertia          1.9406780299        1.3443587878        0.5963192421

             site        a coord        b coord        c coord
                1    0.00000E+00   -6.45811E-02    7.73263E-06
                2    0.00000E+00    5.12501E-01   -8.16679E-01
                3    0.00000E+00    5.12587E-01    8.16556E-01

 shared atoms from passcon                       8


 total degrees of freedom                       837.
 rotational degrees of freedom                  207.
 shell pseudo degrees of freedom                  0.


 sample of starting configuration

      i       x(i)        y(i)        z(i)       vx(i)       vy(i)       vz(i)       fx(i)       fy(i)       fz(i)


      1 -6.6485E+00  8.2894E+00  4.5250E+00  6.3927E+00 -1.8986E+00 -3.4647E+00 -4.0732E+03  1.9602E+03 -1.9973E+03
     22 -6.0378E+00  4.8761E+00  3.1558E-01  5.2991E+00  1.9390E+00  6.9198E+00 -1.0723E+03 -3.8666E+03  3.3718E+03
     43  7.3386E+00 -5.3702E+00 -6.9293E+00  2.7239E-01 -1.0222E+01 -1.7065E+00  2.8810E+03  3.8240E+02  9.8942E+02
     64  7.8783E-01  9.6103E-02 -5.8891E+00 -2.2264E+01 -4.6062E+00 -2.8226E+00  2.5196E+03  5.4007E+03 -2.6466E+03
     85 -4.5461E+00  6.3527E+00 -7.8922E+00  7.9990E+00  4.5604E+00  3.0366E-01 -5.0570E+03  2.2791E+03  2.7874E+03
    106 -5.3835E+00 -2.3992E+00  3.5467E+00 -3.8380E+00 -3.9630E+00 -2.3973E-01 -3.7376E+03  2.1846E+03  3.7047E+03
    127 -4.1347E+00  3.2119E+00  3.9670E+00  4.1665E+00 -2.0049E+01  2.5364E+01  4.8863E+03 -6.5698E+03  5.2849E+02
    148  7.4392E+00 -8.6110E+00  1.3517E+00 -1.0740E+01 -1.3653E+01 -4.5635E+00  3.8919E+03 -4.9905E+03 -2.4764E+03
    169 -5.0976E+00 -6.6210E+00  5.3606E+00 -2.2125E+00 -1.8889E+00  1.8306E+00 -1.7470E+03  7.7497E+03  1.5645E+03
    190  5.3193E+00 -9.0548E-01 -5.1886E+00  4.3812E+00  1.8996E+01 -9.3388E-01  6.4396E+03 -1.7637E+03 -5.9720E+03
    211 -2.2200E+00  5.8109E+00 -3.1123E+00  4.3367E+00  1.7792E+00  1.1652E+01 -5.2887E+03  1.8075E+03 -1.3155E+02
    232  2.6529E+00  1.0496E+00  4.6007E+00 -9.3098E+00  1.5124E+00  1.7699E+01  3.1557E+03  2.9664E+03  2.5631E+02
    253  4.5395E+00  6.9261E+00 -6.7225E+00 -6.3764E+00 -2.2527E+00 -5.2265E+00 -4.7990E+03  1.9083E+03  3.5867E+03
    274 -2.4505E+00 -5.7777E-01 -8.2529E+00  5.0315E+00 -5.0846E+00 -5.2975E+00 -1.7934E+03 -2.5717E+03 -1.9783E+03
    295 -7.2914E+00  3.5978E+00  2.2276E+00  2.7217E+01 -4.1182E+01 -7.6621E+00 -1.9833E+03 -2.8143E+02  2.2670E+03
    316  2.2059E+00  7.0426E+00 -2.6336E-02  4.9835E+00 -1.2869E+01  5.4423E+00 -1.7456E+03  3.4364E+02 -3.2443E+03
    337 -3.4931E+00 -8.1599E+00  8.4916E+00 -1.0959E+00  2.3201E+01  2.9182E+01  2.7847E+03  3.3398E+02  1.5546E+03
    358  1.1302E+00  5.6724E+00 -6.1977E+00  1.3536E+01 -1.9009E+01 -2.4011E+01 -4.7126E+03 -9.4088E+02 -1.3851E+03
    379  6.7274E+00  3.6538E+00 -1.8574E+00 -3.2381E+00  3.9974E+00 -7.7865E+00 -9.5486E+02 -1.5419E+03  1.1959E+03
    400 -1.1234E+00  4.2161E+00 -1.6526E+00  4.3739E+00 -1.2635E+00  2.5452E+00 -1.4090E+03  3.8007E+03 -4.9988E+03


long range correction for: vdw energy    -0.109166E+02
                         : vdw pressure  -0.291737E+00

 time elapsed since job start =           0.253 seconds

 ------------------------------------------------------------------------------------------------------------------------

     step     eng_tot    temp_tot     eng_cfg     eng_vdw     eng_cou     eng_bnd     eng_ang     eng_dih     eng_tet
 time          eng_pv    temp_rot     vir_cfg     vir_vdw     vir_cou     vir_bnd     vir_ang     vir_con     vir_tet
 cpu time      volume    temp_shl     eng_shl     vir_shl       alpha        beta       gamma     vir_pmf       press

 ------------------------------------------------------------------------------------------------------------------------
        1 -8.6878E+02  2.9490E+02 -1.1140E+03  9.7137E+01 -1.2112E+03  0.0000E+00  0.0000E+00  0.0000E+00  0.0000E+00
   0.500f -8.5395E+02  2.7753E+02  3.3185E+02 -3.6460E+03  1.2111E+03  0.0000E+00  0.0000E+00  1.5758E+03  0.0000E+00
   0.338s  5.1242E+03  0.0000E+00  0.0000E+00  0.0000E+00  9.0000E+01  9.0000E+01  9.0000E+01  0.0000E+00  1.9844E-01

  rolling -8.6878E+02  2.9490E+02 -1.1140E+03  9.7137E+01 -1.2112E+03  0.0000E+00  0.0000E+00  0.0000E+00  0.0000E+00
 averages -8.5395E+02  2.7753E+02  3.3185E+02 -3.6460E+03  1.2111E+03  0.0000E+00  0.0000E+00  1.5758E+03  0.0000E+00
           5.1242E+03  0.0000E+00  0.0000E+00  0.0000E+00  9.0000E+01  9.0000E+01  9.0000E+01  0.0000E+00  1.9844E-01
 ------------------------------------------------------------------------------------------------------------------------
      100 -8.6068E+02  2.9768E+02 -1.1082E+03  8.9201E+01 -1.1974E+03  0.0000E+00  0.0000E+00  0.0000E+00  0.0000E+00
  50.000f -8.7760E+02  2.8142E+02  4.3013E+02 -3.5480E+03  1.1970E+03  0.0000E+00  0.0000E+00  1.6167E+03  0.0000E+00
   8.657s  5.1242E+03  0.0000E+00  0.0000E+00  0.0000E+00  9.0000E+01  9.0000E+01  9.0000E+01  0.0000E+00 -2.2646E-01

  rolling -8.6048E+02  2.9457E+02 -1.1055E+03  9.5341E+01 -1.2008E+03  0.0000E+00  0.0000E+00  0.0000E+00  0.0000E+00
 averages -8.5962E+02  2.7479E+02  3.7434E+02 -3.6247E+03  1.2006E+03  0.0000E+00  0.0000E+00  1.6281E+03  0.0000E+00
           5.1242E+03  0.0000E+00  0.0000E+00  0.0000E+00  9.0000E+01  9.0000E+01  9.0000E+01  0.0000E+00  1.1478E-02
 ------------------------------------------------------------------------------------------------------------------------
      200 -8.7081E+02  2.9403E+02 -1.1153E+03  8.7839E+01 -1.2032E+03  0.0000E+00  0.0000E+00  0.0000E+00  0.0000E+00
 100.000f -9.0852E+02  2.6450E+02  4.9339E+02 -3.5393E+03  1.2032E+03  0.0000E+00  0.0000E+00  1.6495E+03  0.0000E+00
  17.103s  5.1242E+03  0.0000E+00  0.0000E+00  0.0000E+00  9.0000E+01  9.0000E+01  9.0000E+01  0.0000E+00 -5.0462E-01

  rolling -8.6795E+02  2.9539E+02 -1.1136E+03  8.2449E+01 -1.1961E+03  0.0000E+00  0.0000E+00  0.0000E+00  0.0000E+00
 averages -9.1777E+02  2.7970E+02  5.2573E+02 -3.4629E+03  1.1959E+03  0.0000E+00  0.0000E+00  1.6200E+03  0.0000E+00
           5.1242E+03  0.0000E+00  0.0000E+00  0.0000E+00  9.0000E+01  9.0000E+01  9.0000E+01  0.0000E+00 -6.6668E-01
 ------------------------------------------------------------------------------------------------------------------------
      300 -8.6681E+02  2.9536E+02 -1.1124E+03  1.2660E+02 -1.2390E+03  0.0000E+00  0.0000E+00  0.0000E+00  0.0000E+00
 150.000f -7.7606E+02  3.2349E+02  8.5963E+01 -4.0676E+03  1.2378E+03  0.0000E+00  0.0000E+00  1.6730E+03  0.0000E+00
  25.373s  5.1242E+03  0.0000E+00  0.0000E+00  0.0000E+00  9.0000E+01  9.0000E+01  9.0000E+01  0.0000E+00  1.2143E+00

  rolling -8.6161E+02  2.9473E+02 -1.1067E+03  1.0766E+02 -1.2144E+03  0.0000E+00  0.0000E+00  0.0000E+00  0.0000E+00
 averages -8.2042E+02  2.7310E+02  2.5430E+02 -3.8124E+03  1.2138E+03  0.0000E+00  0.0000E+00  1.6595E+03  0.0000E+00
           5.1242E+03  0.0000E+00  0.0000E+00  0.0000E+00  9.0000E+01  9.0000E+01  9.0000E+01  0.0000E+00  5.5121E-01
 ------------------------------------------------------------------------------------------------------------------------
      400 -8.5593E+02  2.9804E+02 -1.1038E+03  9.2760E+01 -1.1966E+03  0.0000E+00  0.0000E+00  0.0000E+00  0.0000E+00
 200.000f -8.4137E+02  3.0856E+02  3.2514E+02 -3.6191E+03  1.1965E+03  0.0000E+00  0.0000E+00  1.5654E+03  0.0000E+00
  33.591s  5.1242E+03  0.0000E+00  0.0000E+00  0.0000E+00  9.0000E+01  9.0000E+01  9.0000E+01  0.0000E+00  1.9477E-01

  rolling -8.5944E+02  2.9439E+02 -1.1043E+03  1.1483E+02 -1.2191E+03  0.0000E+00  0.0000E+00  0.0000E+00  0.0000E+00
 averages -7.9240E+02  3.0145E+02  1.6455E+02 -3.9097E+03  1.2183E+03  0.0000E+00  0.0000E+00  1.6387E+03  0.0000E+00
           5.1242E+03  0.0000E+00  0.0000E+00  0.0000E+00  9.0000E+01  9.0000E+01  9.0000E+01  0.0000E+00  8.9706E-01
 ------------------------------------------------------------------------------------------------------------------------
      500 -8.6318E+02  2.9238E+02 -1.1063E+03  8.7210E+01 -1.1936E+03  0.0000E+00  0.0000E+00  0.0000E+00  0.0000E+00
 250.000f -8.7511E+02  2.8108E+02  4.0649E+02 -3.5591E+03  1.1932E+03  0.0000E+00  0.0000E+00  1.5644E+03  0.0000E+00
  41.776s  5.1242E+03  0.0000E+00  0.0000E+00  0.0000E+00  9.0000E+01  9.0000E+01  9.0000E+01  0.0000E+00 -1.5964E-01

  rolling -8.6533E+02  2.9510E+02 -1.1107E+03  8.9752E+01 -1.2005E+03  0.0000E+00  0.0000E+00  0.0000E+00  0.0000E+00
 averages -8.7666E+02  3.0645E+02  3.9876E+02 -3.5864E+03  1.2001E+03  0.0000E+00  0.0000E+00  1.5956E+03  0.0000E+00
           5.1242E+03  0.0000E+00  0.0000E+00  0.0000E+00  9.0000E+01  9.0000E+01  9.0000E+01  0.0000E+00 -1.5160E-01
 ------------------------------------------------------------------------------------------------------------------------
      600 -8.7851E+02  2.8910E+02 -1.1189E+03  1.0143E+02 -1.2204E+03  0.0000E+00  0.0000E+00  0.0000E+00  0.0000E+00
 300.000f -8.8569E+02  3.1743E+02  3.7183E+02 -3.7375E+03  1.2202E+03  0.0000E+00  0.0000E+00  1.6425E+03  0.0000E+00
  49.964s  5.1242E+03  0.0000E+00  0.0000E+00  0.0000E+00  9.0000E+01  9.0000E+01  9.0000E+01  0.0000E+00 -9.6117E-02

  rolling -8.7217E+02  2.9574E+02 -1.1181E+03  9.5903E+01 -1.2140E+03  0.0000E+00  0.0000E+00  0.0000E+00  0.0000E+00
 averages -8.8762E+02  2.8736E+02  4.2004E+02 -3.6694E+03  1.2137E+03  0.0000E+00  0.0000E+00  1.6304E+03  0.0000E+00
           5.1242E+03  0.0000E+00  0.0000E+00  0.0000E+00  9.0000E+01  9.0000E+01  9.0000E+01  0.0000E+00 -2.0666E-01
 ------------------------------------------------------------------------------------------------------------------------
      700 -8.5774E+02  2.8742E+02 -1.0968E+03  8.4767E+01 -1.1815E+03  0.0000E+00  0.0000E+00  0.0000E+00  0.0000E+00
 350.000f -8.9624E+02  2.7503E+02  4.8043E+02 -3.4931E+03  1.1812E+03  0.0000E+00  0.0000E+00  1.5795E+03  0.0000E+00
  58.168s  5.1242E+03  0.0000E+00  0.0000E+00  0.0000E+00  9.0000E+01  9.0000E+01  9.0000E+01  0.0000E+00 -5.1520E-01

  rolling -8.5967E+02  2.9358E+02 -1.1038E+03  9.5037E+01 -1.1989E+03  0.0000E+00  0.0000E+00  0.0000E+00  0.0000E+00
 averages -8.6863E+02  2.9444E+02  3.9407E+02 -3.6423E+03  1.1986E+03  0.0000E+00  0.0000E+00  1.6194E+03  0.0000E+00
           5.1242E+03  0.0000E+00  0.0000E+00  0.0000E+00  9.0000E+01  9.0000E+01  9.0000E+01  0.0000E+00 -1.1984E-01
 ------------------------------------------------------------------------------------------------------------------------
 ------------------------------------------------------------------------------------------------------------------------

     step     eng_tot    temp_tot     eng_cfg     eng_vdw     eng_cou     eng_bnd     eng_ang     eng_dih     eng_tet
 time          eng_pv    temp_rot     vir_cfg     vir_vdw     vir_cou     vir_bnd     vir_ang     vir_con     vir_tet
 cpu time      volume    temp_shl     eng_shl     vir_shl       alpha        beta       gamma     vir_pmf       press

 ------------------------------------------------------------------------------------------------------------------------
      800 -8.5627E+02  2.9813E+02 -1.1042E+03  7.1932E+01 -1.1761E+03  0.0000E+00  0.0000E+00  0.0000E+00  0.0000E+00
 400.000f -9.3646E+02  2.7081E+02  6.2503E+02 -3.2999E+03  1.1753E+03  0.0000E+00  0.0000E+00  1.5737E+03  0.0000E+00
   1.107m  5.1242E+03  0.0000E+00  0.0000E+00  0.0000E+00  9.0000E+01  9.0000E+01  9.0000E+01  0.0000E+00 -1.0730E+00

  rolling -8.5731E+02  2.9532E+02 -1.1029E+03  7.6823E+01 -1.1797E+03  0.0000E+00  0.0000E+00  0.0000E+00  0.0000E+00
 averages -9.1608E+02  2.8272E+02  5.5121E+02 -3.3763E+03  1.1790E+03  0.0000E+00  0.0000E+00  1.5509E+03  0.0000E+00
           5.1242E+03  0.0000E+00  0.0000E+00  0.0000E+00  9.0000E+01  9.0000E+01  9.0000E+01  0.0000E+00 -7.8641E-01
 ------------------------------------------------------------------------------------------------------------------------
      900 -8.6373E+02  2.9039E+02 -1.1052E+03  7.3467E+01 -1.1787E+03  0.0000E+00  0.0000E+00  0.0000E+00  0.0000E+00
 450.000f -9.4193E+02  2.6951E+02  6.0674E+02 -3.3196E+03  1.1775E+03  0.0000E+00  0.0000E+00  1.5746E+03  0.0000E+00
   1.244m  5.1241E+03  0.0000E+00  0.0000E+00  0.0000E+00  9.0000E+01  9.0000E+01  9.0000E+01  0.0000E+00 -1.0464E+00

  rolling -8.5651E+02  2.9506E+02 -1.1019E+03  7.1090E+01 -1.1730E+03  0.0000E+00  0.0000E+00  0.0000E+00  0.0000E+00
 averages -9.3951E+02  2.8011E+02  6.2455E+02 -3.2860E+03  1.1717E+03  0.0000E+00  0.0000E+00  1.5612E+03  0.0000E+00
           5.1242E+03  0.0000E+00  0.0000E+00  0.0000E+00  9.0000E+01  9.0000E+01  9.0000E+01  0.0000E+00 -1.1106E+00
 ------------------------------------------------------------------------------------------------------------------------
     1000 -8.3395E+02  2.9622E+02 -1.0803E+03  7.7325E+01 -1.1576E+03  0.0000E+00  0.0000E+00  0.0000E+00  0.0000E+00
 500.000f -8.7575E+02  3.1293E+02  4.8937E+02 -3.3779E+03  1.1570E+03  0.0000E+00  0.0000E+00  1.5515E+03  0.0000E+00
   1.380m  5.1241E+03  0.0000E+00  0.0000E+00  0.0000E+00  9.0000E+01  9.0000E+01  9.0000E+01  0.0000E+00 -5.5932E-01

  rolling -8.3672E+02  2.9337E+02 -1.0807E+03  7.8837E+01 -1.1595E+03  0.0000E+00  0.0000E+00  0.0000E+00  0.0000E+00
 averages -8.7266E+02  3.0341E+02  4.7096E+02 -3.3950E+03  1.1589E+03  0.0000E+00  0.0000E+00  1.5298E+03  0.0000E+00
           5.1241E+03  0.0000E+00  0.0000E+00  0.0000E+00  9.0000E+01  9.0000E+01  9.0000E+01  0.0000E+00 -4.8085E-01
 ------------------------------------------------------------------------------------------------------------------------


 switching off temperature scaling at step   1000


 ------------------------------------------------------------------------------------------------------------------------
     1100 -8.3515E+02  3.2080E+02 -1.1020E+03  6.0691E+01 -1.1627E+03  0.0000E+00  0.0000E+00  0.0000E+00  0.0000E+00
 550.000f -9.3135E+02  3.0252E+02  6.9768E+02 -3.1606E+03  1.1612E+03  0.0000E+00  0.0000E+00  1.5638E+03  0.0000E+00
   1.513m  5.1238E+03  0.0000E+00  0.0000E+00  0.0000E+00  9.0000E+01  9.0000E+01  9.0000E+01  0.0000E+00 -1.2871E+00

  rolling -8.3512E+02  3.1177E+02 -1.0944E+03  6.8250E+01 -1.1627E+03  0.0000E+00  0.0000E+00  0.0000E+00  0.0000E+00
 averages -9.1100E+02  3.3426E+02  6.0868E+02 -3.2594E+03  1.1617E+03  0.0000E+00  0.0000E+00  1.5588E+03  0.0000E+00
           5.1240E+03  0.0000E+00  0.0000E+00  0.0000E+00  9.0000E+01  9.0000E+01  9.0000E+01  0.0000E+00 -1.0153E+00
 ------------------------------------------------------------------------------------------------------------------------
     1200 -8.3509E+02  3.4536E+02 -1.1225E+03  8.6169E+01 -1.2087E+03  0.0000E+00  0.0000E+00  0.0000E+00  0.0000E+00
 600.000f -8.5376E+02  3.1560E+02  5.0003E+02 -3.5097E+03  1.2078E+03  0.0000E+00  0.0000E+00  1.5931E+03  0.0000E+00
   1.651m  5.1228E+03  0.0000E+00  0.0000E+00  0.0000E+00  9.0000E+01  9.0000E+01  9.0000E+01  0.0000E+00 -2.4720E-01

  rolling -8.3511E+02  3.3374E+02 -1.1128E+03  7.4357E+01 -1.1871E+03  0.0000E+00  0.0000E+00  0.0000E+00  0.0000E+00
 averages -8.9639E+02  3.0091E+02  6.1486E+02 -3.3448E+03  1.1859E+03  0.0000E+00  0.0000E+00  1.6029E+03  0.0000E+00
           5.1233E+03  0.0000E+00  0.0000E+00  0.0000E+00  9.0000E+01  9.0000E+01  9.0000E+01  0.0000E+00 -8.1873E-01
 ------------------------------------------------------------------------------------------------------------------------
     1300 -8.3513E+02  3.2095E+02 -1.1026E+03  1.1876E+02 -1.2213E+03  0.0000E+00  0.0000E+00  0.0000E+00  0.0000E+00
 650.000f -7.5190E+02  3.0670E+02  1.5645E+02 -3.9472E+03  1.2210E+03  0.0000E+00  0.0000E+00  1.6682E+03  0.0000E+00
   1.788m  5.1216E+03  0.0000E+00  0.0000E+00  0.0000E+00  9.0000E+01  9.0000E+01  9.0000E+01  0.0000E+00  1.1212E+00

  rolling -8.3510E+02  3.2432E+02 -1.1052E+03  1.0570E+02 -1.2109E+03  0.0000E+00  0.0000E+00  0.0000E+00  0.0000E+00
 averages -7.9030E+02  3.2066E+02  2.7206E+02 -3.7728E+03  1.2101E+03  0.0000E+00  0.0000E+00  1.6225E+03  0.0000E+00
           5.1221E+03  0.0000E+00  0.0000E+00  0.0000E+00  9.0000E+01  9.0000E+01  9.0000E+01  0.0000E+00  6.0457E-01
 ------------------------------------------------------------------------------------------------------------------------
     1400 -8.3514E+02  3.1361E+02 -1.0969E+03  9.5702E+01 -1.1926E+03  0.0000E+00  0.0000E+00  0.0000E+00  0.0000E+00
 700.000f -8.1800E+02  2.6893E+02  3.5684E+02 -3.6358E+03  1.1915E+03  0.0000E+00  0.0000E+00  1.6067E+03  0.0000E+00
   1.925m  5.1211E+03  0.0000E+00  0.0000E+00  0.0000E+00  9.0000E+01  9.0000E+01  9.0000E+01  0.0000E+00  2.4174E-01

  rolling -8.3513E+02  3.1204E+02 -1.0954E+03  1.0532E+02 -1.2007E+03  0.0000E+00  0.0000E+00  0.0000E+00  0.0000E+00
 averages -7.8126E+02  2.7637E+02  2.4158E+02 -3.7672E+03  1.1998E+03  0.0000E+00  0.0000E+00  1.5972E+03  0.0000E+00
           5.1213E+03  0.0000E+00  0.0000E+00  0.0000E+00  9.0000E+01  9.0000E+01  9.0000E+01  0.0000E+00  7.3080E-01
 ------------------------------------------------------------------------------------------------------------------------
     1500 -8.3514E+02  3.1185E+02 -1.0959E+03  9.5627E+01 -1.1915E+03  0.0000E+00  0.0000E+00  0.0000E+00  0.0000E+00
 750.000f -8.2699E+02  3.0651E+02  3.6394E+02 -3.6262E+03  1.1901E+03  0.0000E+00  0.0000E+00  1.6148E+03  0.0000E+00
   2.061m  5.1208E+03  0.0000E+00  0.0000E+00  0.0000E+00  9.0000E+01  9.0000E+01  9.0000E+01  0.0000E+00  1.2797E-01

  rolling -8.3517E+02  3.1532E+02 -1.0986E+03  9.6666E+01 -1.1952E+03  0.0000E+00  0.0000E+00  0.0000E+00  0.0000E+00
 averages -8.1660E+02  3.1473E+02  3.3582E+02 -3.6467E+03  1.1940E+03  0.0000E+00  0.0000E+00  1.5784E+03  0.0000E+00
           5.1209E+03  0.0000E+00  0.0000E+00  0.0000E+00  9.0000E+01  9.0000E+01  9.0000E+01  0.0000E+00  2.6417E-01
 ------------------------------------------------------------------------------------------------------------------------
 ------------------------------------------------------------------------------------------------------------------------

     step     eng_tot    temp_tot     eng_cfg     eng_vdw     eng_cou     eng_bnd     eng_ang     eng_dih     eng_tet
 time          eng_pv    temp_rot     vir_cfg     vir_vdw     vir_cou     vir_bnd     vir_ang     vir_con     vir_tet
 cpu time      volume    temp_shl     eng_shl     vir_shl       alpha        beta       gamma     vir_pmf       press

 ------------------------------------------------------------------------------------------------------------------------
     1600 -8.3512E+02  3.0390E+02 -1.0898E+03  7.2794E+01 -1.1626E+03  0.0000E+00  0.0000E+00  0.0000E+00  0.0000E+00
 800.000f -8.9297E+02  2.6056E+02  5.6599E+02 -3.3085E+03  1.1615E+03  0.0000E+00  0.0000E+00  1.5338E+03  0.0000E+00
   2.197m  5.1207E+03  0.0000E+00  0.0000E+00  0.0000E+00  9.0000E+01  9.0000E+01  9.0000E+01  0.0000E+00 -7.4851E-01

  rolling -8.3514E+02  3.0330E+02 -1.0891E+03  8.7885E+01 -1.1769E+03  0.0000E+00  0.0000E+00  0.0000E+00  0.0000E+00
 averages -8.4804E+02  3.0343E+02  4.1334E+02 -3.5146E+03  1.1755E+03  0.0000E+00  0.0000E+00  1.5592E+03  0.0000E+00
           5.1208E+03  0.0000E+00  0.0000E+00  0.0000E+00  9.0000E+01  9.0000E+01  9.0000E+01  0.0000E+00 -1.5031E-01
 ------------------------------------------------------------------------------------------------------------------------
     1700 -8.3506E+02  3.0054E+02 -1.0875E+03  6.2018E+01 -1.1496E+03  0.0000E+00  0.0000E+00  0.0000E+00  0.0000E+00
 850.000f -9.2474E+02  2.7578E+02  6.4788E+02 -3.1611E+03  1.1484E+03  0.0000E+00  0.0000E+00  1.5174E+03  0.0000E+00
   2.333m  5.1200E+03  0.0000E+00  0.0000E+00  0.0000E+00  9.0000E+01  9.0000E+01  9.0000E+01  0.0000E+00 -1.1671E+00

  rolling -8.3507E+02  3.0379E+02 -1.0900E+03  6.7299E+01 -1.1573E+03  0.0000E+00  0.0000E+00  0.0000E+00  0.0000E+00
 averages -9.1555E+02  2.9033E+02  6.2059E+02 -3.2326E+03  1.1561E+03  0.0000E+00  0.0000E+00  1.5267E+03  0.0000E+00
           5.1204E+03  0.0000E+00  0.0000E+00  0.0000E+00  9.0000E+01  9.0000E+01  9.0000E+01  0.0000E+00 -1.0477E+00
 ------------------------------------------------------------------------------------------------------------------------
     1800 -8.3514E+02  3.1976E+02 -1.1043E+03  6.4695E+01 -1.1690E+03  0.0000E+00  0.0000E+00  0.0000E+00  0.0000E+00
 900.000f -9.3074E+02  3.1622E+02  6.7895E+02 -3.2131E+03  1.1679E+03  0.0000E+00  0.0000E+00  1.5603E+03  0.0000E+00
   2.468m  5.1185E+03  0.0000E+00  0.0000E+00  0.0000E+00  9.0000E+01  9.0000E+01  9.0000E+01  0.0000E+00 -1.2377E+00

  rolling -8.3514E+02  3.1300E+02 -1.0983E+03  5.5943E+01 -1.1542E+03  0.0000E+00  0.0000E+00  0.0000E+00  0.0000E+00
 averages -9.5657E+02  3.0058E+02  7.5266E+02 -3.0868E+03  1.1531E+03  0.0000E+00  0.0000E+00  1.5428E+03  0.0000E+00
           5.1193E+03  0.0000E+00  0.0000E+00  0.0000E+00  9.0000E+01  9.0000E+01  9.0000E+01  0.0000E+00 -1.5881E+00
 ------------------------------------------------------------------------------------------------------------------------
     1900 -8.3515E+02  3.1910E+02 -1.1045E+03  9.6081E+01 -1.2006E+03  0.0000E+00  0.0000E+00  0.0000E+00  0.0000E+00
 950.000f -8.2856E+02  3.6072E+02  3.5059E+02 -3.6579E+03  1.2005E+03  0.0000E+00  0.0000E+00  1.6282E+03  0.0000E+00
   2.604m  5.1160E+03  0.0000E+00  0.0000E+00  0.0000E+00  9.0000E+01  9.0000E+01  9.0000E+01  0.0000E+00  1.4197E-01

  rolling -8.3514E+02  3.2296E+02 -1.1073E+03  7.8814E+01 -1.1862E+03  0.0000E+00  0.0000E+00  0.0000E+00  0.0000E+00
 averages -8.8424E+02  3.4346E+02  5.3234E+02 -3.4167E+03  1.1855E+03  0.0000E+00  0.0000E+00  1.5878E+03  0.0000E+00
           5.1173E+03  0.0000E+00  0.0000E+00  0.0000E+00  9.0000E+01  9.0000E+01  9.0000E+01  0.0000E+00 -6.0937E-01
 ------------------------------------------------------------------------------------------------------------------------
     2000 -8.3516E+02  3.1707E+02 -1.1037E+03  8.7205E+01 -1.1909E+03  0.0000E+00  0.0000E+00  0.0000E+00  0.0000E+00
   1.000p -8.4253E+02  3.0898E+02  4.0781E+02 -3.5588E+03  1.1903E+03  0.0000E+00  0.0000E+00  1.6070E+03  0.0000E+00
   2.739m  5.1135E+03  0.0000E+00  0.0000E+00  0.0000E+00  9.0000E+01  9.0000E+01  9.0000E+01  0.0000E+00 -3.3670E-02

  rolling -8.3516E+02  3.1715E+02 -1.1033E+03  9.0400E+01 -1.1937E+03  0.0000E+00  0.0000E+00  0.0000E+00  0.0000E+00
 averages -8.3235E+02  3.1655E+02  3.7560E+02 -3.5940E+03  1.1935E+03  0.0000E+00  0.0000E+00  1.6272E+03  0.0000E+00
           5.1148E+03  0.0000E+00  0.0000E+00  0.0000E+00  9.0000E+01  9.0000E+01  9.0000E+01  0.0000E+00  9.6997E-02
 ------------------------------------------------------------------------------------------------------------------------
     2100 -8.3516E+02  3.1769E+02 -1.1052E+03  8.8856E+01 -1.1941E+03  0.0000E+00  0.0000E+00  0.0000E+00  0.0000E+00
   1.050p -8.3938E+02  3.2599E+02  3.8946E+02 -3.5786E+03  1.1933E+03  0.0000E+00  0.0000E+00  1.5786E+03  0.0000E+00
   2.875m  5.1111E+03  0.0000E+00  0.0000E+00  0.0000E+00  9.0000E+01  9.0000E+01  9.0000E+01  0.0000E+00  2.1730E-02

  rolling -8.3516E+02  3.2010E+02 -1.1067E+03  8.9285E+01 -1.1960E+03  0.0000E+00  0.0000E+00  0.0000E+00  0.0000E+00
 averages -8.3853E+02  3.3209E+02  3.8988E+02 -3.5881E+03  1.1954E+03  0.0000E+00  0.0000E+00  1.5912E+03  0.0000E+00
           5.1123E+03  0.0000E+00  0.0000E+00  0.0000E+00  9.0000E+01  9.0000E+01  9.0000E+01  0.0000E+00  2.6554E-02
 ------------------------------------------------------------------------------------------------------------------------
     2200 -8.3508E+02  3.0372E+02 -1.0946E+03  9.6461E+01 -1.1910E+03  0.0000E+00  0.0000E+00  0.0000E+00  0.0000E+00
   1.100p -8.2041E+02  2.7488E+02  3.2734E+02 -3.6594E+03  1.1905E+03  0.0000E+00  0.0000E+00  1.6468E+03  0.0000E+00
   3.011m  5.1086E+03  0.0000E+00  0.0000E+00  0.0000E+00  9.0000E+01  9.0000E+01  9.0000E+01  0.0000E+00  2.8977E-01

  rolling -8.3515E+02  3.1515E+02 -1.1036E+03  8.5480E+01 -1.1891E+03  0.0000E+00  0.0000E+00  0.0000E+00  0.0000E+00
 averages -8.5407E+02  2.9658E+02  4.3981E+02 -3.5245E+03  1.1880E+03  0.0000E+00  0.0000E+00  1.6001E+03  0.0000E+00
           5.1098E+03  0.0000E+00  0.0000E+00  0.0000E+00  9.0000E+01  9.0000E+01  9.0000E+01  0.0000E+00 -1.6827E-01
 ------------------------------------------------------------------------------------------------------------------------
     2300 -8.3509E+02  2.9532E+02 -1.0887E+03  9.5964E+01 -1.1847E+03  0.0000E+00  0.0000E+00  0.0000E+00  0.0000E+00
   1.150p -8.1932E+02  2.8558E+02  3.0229E+02 -3.6519E+03  1.1840E+03  0.0000E+00  0.0000E+00  1.6260E+03  0.0000E+00
   3.147m  5.1060E+03  0.0000E+00  0.0000E+00  0.0000E+00  9.0000E+01  9.0000E+01  9.0000E+01  0.0000E+00  3.1975E-01

  rolling -8.3510E+02  3.0996E+02 -1.1004E+03  9.5362E+01 -1.1957E+03  0.0000E+00  0.0000E+00  0.0000E+00  0.0000E+00
 averages -8.3726E+02  2.9250E+02  3.7928E+02 -3.6431E+03  1.1949E+03  0.0000E+00  0.0000E+00  1.6673E+03  0.0000E+00
           5.1073E+03  0.0000E+00  0.0000E+00  0.0000E+00  9.0000E+01  9.0000E+01  9.0000E+01  0.0000E+00  7.1424E-02
 ------------------------------------------------------------------------------------------------------------------------
 ------------------------------------------------------------------------------------------------------------------------

     step     eng_tot    temp_tot     eng_cfg     eng_vdw     eng_cou     eng_bnd     eng_ang     eng_dih     eng_tet
 time          eng_pv    temp_rot     vir_cfg     vir_vdw     vir_cou     vir_bnd     vir_ang     vir_con     vir_tet
 cpu time      volume    temp_shl     eng_shl     vir_shl       alpha        beta       gamma     vir_pmf       press

 ------------------------------------------------------------------------------------------------------------------------
     2400 -8.3515E+02  3.0470E+02 -1.0978E+03  1.0295E+02 -1.2007E+03  0.0000E+00  0.0000E+00  0.0000E+00  0.0000E+00
   1.200p -8.0011E+02  2.6517E+02  2.6495E+02 -3.7539E+03  1.1996E+03  0.0000E+00  0.0000E+00  1.6511E+03  0.0000E+00
   3.285m  5.1036E+03  0.0000E+00  0.0000E+00  0.0000E+00  9.0000E+01  9.0000E+01  9.0000E+01  0.0000E+00  5.9460E-01

  rolling -8.3515E+02  3.1194E+02 -1.1032E+03  9.5085E+01 -1.1983E+03  0.0000E+00  0.0000E+00  0.0000E+00  0.0000E+00
 averages -8.3766E+02  3.0960E+02  3.7317E+02 -3.6462E+03  1.1975E+03  0.0000E+00  0.0000E+00  1.6544E+03  0.0000E+00
           5.1048E+03  0.0000E+00  0.0000E+00  0.0000E+00  9.0000E+01  9.0000E+01  9.0000E+01  0.0000E+00  8.2065E-02
 ------------------------------------------------------------------------------------------------------------------------
     2500 -8.3518E+02  3.0115E+02 -1.0961E+03  9.7489E+01 -1.1936E+03  0.0000E+00  0.0000E+00  0.0000E+00  0.0000E+00
   1.250p -8.2668E+02  2.5696E+02  3.3832E+02 -3.6703E+03  1.1930E+03  0.0000E+00  0.0000E+00  1.6130E+03  0.0000E+00
   3.422m  5.1013E+03  0.0000E+00  0.0000E+00  0.0000E+00  9.0000E+01  9.0000E+01  9.0000E+01  0.0000E+00  2.5488E-01

  rolling -8.3518E+02  3.1060E+02 -1.1033E+03  9.9510E+01 -1.2028E+03  0.0000E+00  0.0000E+00  0.0000E+00  0.0000E+00
 averages -8.1945E+02  2.8946E+02  3.2086E+02 -3.7062E+03  1.2021E+03  0.0000E+00  0.0000E+00  1.6253E+03  0.0000E+00
           5.1024E+03  0.0000E+00  0.0000E+00  0.0000E+00  9.0000E+01  9.0000E+01  9.0000E+01  0.0000E+00  3.4351E-01
 ------------------------------------------------------------------------------------------------------------------------
     2600 -8.3516E+02  2.9525E+02 -1.0925E+03  8.0520E+01 -1.1730E+03  0.0000E+00  0.0000E+00  0.0000E+00  0.0000E+00
   1.300p -8.8253E+02  2.9752E+02  4.7557E+02 -3.4390E+03  1.1722E+03  0.0000E+00  0.0000E+00  1.5314E+03  0.0000E+00
   3.557m  5.0991E+03  0.0000E+00  0.0000E+00  0.0000E+00  9.0000E+01  9.0000E+01  9.0000E+01  0.0000E+00 -4.7896E-01

  rolling -8.3513E+02  3.0397E+02 -1.0990E+03  9.1138E+01 -1.1902E+03  0.0000E+00  0.0000E+00  0.0000E+00  0.0000E+00
 averages -8.5495E+02  2.7859E+02  4.1710E+02 -3.5823E+03  1.1893E+03  0.0000E+00  0.0000E+00  1.5979E+03  0.0000E+00
           5.1002E+03  0.0000E+00  0.0000E+00  0.0000E+00  9.0000E+01  9.0000E+01  9.0000E+01  0.0000E+00 -1.1705E-01
 ------------------------------------------------------------------------------------------------------------------------
     2700 -8.3518E+02  2.9664E+02 -1.0949E+03  7.3972E+01 -1.1689E+03  0.0000E+00  0.0000E+00  0.0000E+00  0.0000E+00
   1.350p -9.1174E+02  3.0243E+02  5.5953E+02 -3.3327E+03  1.1681E+03  0.0000E+00  0.0000E+00  1.5190E+03  0.0000E+00
   3.693m  5.0967E+03  0.0000E+00  0.0000E+00  0.0000E+00  9.0000E+01  9.0000E+01  9.0000E+01  0.0000E+00 -8.5445E-01

  rolling -8.3518E+02  2.9696E+02 -1.0945E+03  7.6806E+01 -1.1714E+03  0.0000E+00  0.0000E+00  0.0000E+00  0.0000E+00
 averages -9.0082E+02  2.8728E+02  5.3546E+02 -3.3792E+03  1.1703E+03  0.0000E+00  0.0000E+00  1.5486E+03  0.0000E+00
           5.0979E+03  0.0000E+00  0.0000E+00  0.0000E+00  9.0000E+01  9.0000E+01  9.0000E+01  0.0000E+00 -7.1604E-01
 ------------------------------------------------------------------------------------------------------------------------
     2800 -8.3511E+02  2.8547E+02 -1.0869E+03  9.4380E+01 -1.1812E+03  0.0000E+00  0.0000E+00  0.0000E+00  0.0000E+00
   1.400p -8.4424E+02  2.5967E+02  3.5234E+02 -3.6097E+03  1.1804E+03  0.0000E+00  0.0000E+00  1.5908E+03  0.0000E+00
   3.829m  5.0937E+03  0.0000E+00  0.0000E+00  0.0000E+00  9.0000E+01  9.0000E+01  9.0000E+01  0.0000E+00  7.0261E-02

  rolling -8.3514E+02  2.9528E+02 -1.0944E+03  7.9367E+01 -1.1738E+03  0.0000E+00  0.0000E+00  0.0000E+00  0.0000E+00
 averages -8.9522E+02  2.8731E+02  5.1208E+02 -3.4075E+03  1.1728E+03  0.0000E+00  0.0000E+00  1.5520E+03  0.0000E+00
           5.0952E+03  0.0000E+00  0.0000E+00  0.0000E+00  9.0000E+01  9.0000E+01  9.0000E+01  0.0000E+00 -6.2401E-01
 ------------------------------------------------------------------------------------------------------------------------
     2900 -8.3508E+02  2.9892E+02 -1.0993E+03  7.6250E+01 -1.1755E+03  0.0000E+00  0.0000E+00  0.0000E+00  0.0000E+00
   1.450p -9.1048E+02  2.8323E+02  5.6005E+02 -3.3701E+03  1.1745E+03  0.0000E+00  0.0000E+00  1.5474E+03  0.0000E+00
   3.966m  5.0905E+03  0.0000E+00  0.0000E+00  0.0000E+00  9.0000E+01  9.0000E+01  9.0000E+01  0.0000E+00 -8.0532E-01

  rolling -8.3510E+02  2.9246E+02 -1.0933E+03  9.4488E+01 -1.1878E+03  0.0000E+00  0.0000E+00  0.0000E+00  0.0000E+00
 averages -8.5505E+02  2.8189E+02  3.8537E+02 -3.6121E+03  1.1872E+03  0.0000E+00  0.0000E+00  1.5947E+03  0.0000E+00
           5.0921E+03  0.0000E+00  0.0000E+00  0.0000E+00  9.0000E+01  9.0000E+01  9.0000E+01  0.0000E+00 -6.6838E-02
 ------------------------------------------------------------------------------------------------------------------------
     3000 -8.3511E+02  3.0180E+02 -1.1030E+03  8.2795E+01 -1.1858E+03  0.0000E+00  0.0000E+00  0.0000E+00  0.0000E+00
   1.500p -8.9990E+02  2.8521E+02  5.2839E+02 -3.4394E+03  1.1850E+03  0.0000E+00  0.0000E+00  1.5334E+03  0.0000E+00
   4.103m  5.0871E+03  0.0000E+00  0.0000E+00  0.0000E+00  9.0000E+01  9.0000E+01  9.0000E+01  0.0000E+00 -6.4576E-01

  rolling -8.3508E+02  2.9217E+02 -1.0943E+03  8.3896E+01 -1.1782E+03  0.0000E+00  0.0000E+00  0.0000E+00  0.0000E+00
 averages -8.9095E+02  2.6233E+02  4.9688E+02 -3.4600E+03  1.1773E+03  0.0000E+00  0.0000E+00  1.5398E+03  0.0000E+00
           5.0888E+03  0.0000E+00  0.0000E+00  0.0000E+00  9.0000E+01  9.0000E+01  9.0000E+01  0.0000E+00 -5.3363E-01
 ------------------------------------------------------------------------------------------------------------------------
     3100 -8.3508E+02  2.9560E+02 -1.0991E+03  8.7986E+01 -1.1871E+03  0.0000E+00  0.0000E+00  0.0000E+00  0.0000E+00
   1.550p -8.7376E+02  3.0749E+02  4.2674E+02 -3.5181E+03  1.1863E+03  0.0000E+00  0.0000E+00  1.5519E+03  0.0000E+00
   4.240m  5.0833E+03  0.0000E+00  0.0000E+00  0.0000E+00  9.0000E+01  9.0000E+01  9.0000E+01  0.0000E+00 -2.7679E-01

  rolling -8.3512E+02  2.9551E+02 -1.0984E+03  8.3527E+01 -1.1819E+03  0.0000E+00  0.0000E+00  0.0000E+00  0.0000E+00
 averages -8.8901E+02  2.8617E+02  4.8286E+02 -3.4513E+03  1.1810E+03  0.0000E+00  0.0000E+00  1.5428E+03  0.0000E+00
           5.0852E+03  0.0000E+00  0.0000E+00  0.0000E+00  9.0000E+01  9.0000E+01  9.0000E+01  0.0000E+00 -4.9012E-01
 ------------------------------------------------------------------------------------------------------------------------
 ------------------------------------------------------------------------------------------------------------------------

     step     eng_tot    temp_tot     eng_cfg     eng_vdw     eng_cou     eng_bnd     eng_ang     eng_dih     eng_tet
 time          eng_pv    temp_rot     vir_cfg     vir_vdw     vir_cou     vir_bnd     vir_ang     vir_con     vir_tet
 cpu time      volume    temp_shl     eng_shl     vir_shl       alpha        beta       gamma     vir_pmf       press

 ------------------------------------------------------------------------------------------------------------------------
     3200 -8.3507E+02  2.9963E+02 -1.1037E+03  8.3676E+01 -1.1874E+03  0.0000E+00  0.0000E+00  0.0000E+00  0.0000E+00
   1.600p -8.8853E+02  3.3049E+02  4.6450E+02 -3.4635E+03  1.1869E+03  0.0000E+00  0.0000E+00  1.5065E+03  0.0000E+00
   4.376m  5.0793E+03  0.0000E+00  0.0000E+00  0.0000E+00  9.0000E+01  9.0000E+01  9.0000E+01  0.0000E+00 -4.5935E-01

  rolling -8.3508E+02  2.9481E+02 -1.0991E+03  8.4135E+01 -1.1832E+03  0.0000E+00  0.0000E+00  0.0000E+00  0.0000E+00
 averages -8.8773E+02  3.0951E+02  4.6460E+02 -3.4717E+03  1.1828E+03  0.0000E+00  0.0000E+00  1.5371E+03  0.0000E+00
           5.0813E+03  0.0000E+00  0.0000E+00  0.0000E+00  9.0000E+01  9.0000E+01  9.0000E+01  0.0000E+00 -4.5686E-01
 ------------------------------------------------------------------------------------------------------------------------
     3300 -8.3507E+02  3.0577E+02 -1.1101E+03  7.8654E+01 -1.1888E+03  0.0000E+00  0.0000E+00  0.0000E+00  0.0000E+00
   1.650p -9.0992E+02  2.7665E+02  5.5706E+02 -3.4005E+03  1.1881E+03  0.0000E+00  0.0000E+00  1.5441E+03  0.0000E+00
   4.513m  5.0749E+03  0.0000E+00  0.0000E+00  0.0000E+00  9.0000E+01  9.0000E+01  9.0000E+01  0.0000E+00 -7.3084E-01

  rolling -8.3507E+02  3.0079E+02 -1.1053E+03  8.3092E+01 -1.1884E+03  0.0000E+00  0.0000E+00  0.0000E+00  0.0000E+00
 averages -8.9679E+02  2.8794E+02  5.0673E+02 -3.4540E+03  1.1877E+03  0.0000E+00  0.0000E+00  1.5336E+03  0.0000E+00
           5.0771E+03  0.0000E+00  0.0000E+00  0.0000E+00  9.0000E+01  9.0000E+01  9.0000E+01  0.0000E+00 -5.6216E-01
 ------------------------------------------------------------------------------------------------------------------------
     3400 -8.3503E+02  2.9164E+02 -1.0997E+03  8.8352E+01 -1.1880E+03  0.0000E+00  0.0000E+00  0.0000E+00  0.0000E+00
   1.700p -8.7526E+02  2.9200E+02  4.1942E+02 -3.5472E+03  1.1871E+03  0.0000E+00  0.0000E+00  1.5627E+03  0.0000E+00
   4.648m  5.0702E+03  0.0000E+00  0.0000E+00  0.0000E+00  9.0000E+01  9.0000E+01  9.0000E+01  0.0000E+00 -2.4543E-01

  rolling -8.3504E+02  2.9943E+02 -1.1055E+03  8.5803E+01 -1.1913E+03  0.0000E+00  0.0000E+00  0.0000E+00  0.0000E+00
 averages -8.8091E+02  3.0561E+02  4.4564E+02 -3.5041E+03  1.1906E+03  0.0000E+00  0.0000E+00  1.5409E+03  0.0000E+00
           5.0726E+03  0.0000E+00  0.0000E+00  0.0000E+00  9.0000E+01  9.0000E+01  9.0000E+01  0.0000E+00 -3.3028E-01
 ------------------------------------------------------------------------------------------------------------------------
     3500 -8.3511E+02  3.0106E+02 -1.1089E+03  9.4820E+01 -1.2037E+03  0.0000E+00  0.0000E+00  0.0000E+00  0.0000E+00
   1.750p -8.6837E+02  3.4327E+02  3.8925E+02 -3.6309E+03  1.2032E+03  0.0000E+00  0.0000E+00  1.5833E+03  0.0000E+00
   4.783m  5.0654E+03  0.0000E+00  0.0000E+00  0.0000E+00  9.0000E+01  9.0000E+01  9.0000E+01  0.0000E+00 -1.3397E-01

  rolling -8.3507E+02  2.9402E+02 -1.1023E+03  9.6090E+01 -1.1984E+03  0.0000E+00  0.0000E+00  0.0000E+00  0.0000E+00
 averages -8.5426E+02  3.1494E+02  3.4883E+02 -3.6496E+03  1.1977E+03  0.0000E+00  0.0000E+00  1.5621E+03  0.0000E+00
           5.0678E+03  0.0000E+00  0.0000E+00  0.0000E+00  9.0000E+01  9.0000E+01  9.0000E+01  0.0000E+00  4.8155E-02
 ------------------------------------------------------------------------------------------------------------------------
     3600 -8.3514E+02  2.9184E+02 -1.1025E+03  9.3609E+01 -1.1962E+03  0.0000E+00  0.0000E+00  0.0000E+00  0.0000E+00
   1.800p -8.8567E+02  3.1326E+02  4.3405E+02 -3.6139E+03  1.1950E+03  0.0000E+00  0.0000E+00  1.6331E+03  0.0000E+00
   4.919m  5.0606E+03  0.0000E+00  0.0000E+00  0.0000E+00  9.0000E+01  9.0000E+01  9.0000E+01  0.0000E+00 -3.5001E-01

  rolling -8.3510E+02  2.9728E+02 -1.1064E+03  8.7528E+01 -1.1939E+03  0.0000E+00  0.0000E+00  0.0000E+00  0.0000E+00
 averages -8.9770E+02  3.2049E+02  4.7831E+02 -3.5339E+03  1.1933E+03  0.0000E+00  0.0000E+00  1.5839E+03  0.0000E+00
           5.0630E+03  0.0000E+00  0.0000E+00  0.0000E+00  9.0000E+01  9.0000E+01  9.0000E+01  0.0000E+00 -5.2229E-01
 ------------------------------------------------------------------------------------------------------------------------
     3700 -8.3513E+02  3.0735E+02 -1.1167E+03  1.0531E+02 -1.2220E+03  0.0000E+00  0.0000E+00  0.0000E+00  0.0000E+00
   1.850p -8.4387E+02  2.8235E+02  3.4333E+02 -3.7796E+03  1.2204E+03  0.0000E+00  0.0000E+00  1.6519E+03  0.0000E+00
   5.055m  5.0555E+03  0.0000E+00  0.0000E+00  0.0000E+00  9.0000E+01  9.0000E+01  9.0000E+01  0.0000E+00  2.3393E-01

  rolling -8.3513E+02  2.9705E+02 -1.1075E+03  1.0048E+02 -1.2080E+03  0.0000E+00  0.0000E+00  0.0000E+00  0.0000E+00
 averages -8.5373E+02  2.9841E+02  3.5114E+02 -3.7104E+03  1.2066E+03  0.0000E+00  0.0000E+00  1.6177E+03  0.0000E+00
           5.0580E+03  0.0000E+00  0.0000E+00  0.0000E+00  9.0000E+01  9.0000E+01  9.0000E+01  0.0000E+00  9.1244E-02
 ------------------------------------------------------------------------------------------------------------------------
     3800 -8.3507E+02  2.9136E+02 -1.1046E+03  1.1813E+02 -1.2228E+03  0.0000E+00  0.0000E+00  0.0000E+00  0.0000E+00
   1.900p -7.9043E+02  3.1087E+02  1.4108E+02 -3.9620E+03  1.2217E+03  0.0000E+00  0.0000E+00  1.6082E+03  0.0000E+00
   5.193m  5.0508E+03  0.0000E+00  0.0000E+00  0.0000E+00  9.0000E+01  9.0000E+01  9.0000E+01  0.0000E+00  9.7596E-01

  rolling -8.3510E+02  2.9731E+02 -1.1090E+03  1.1234E+02 -1.2213E+03  0.0000E+00  0.0000E+00  0.0000E+00  0.0000E+00
 averages -8.1214E+02  3.0601E+02  2.1986E+02 -3.8809E+03  1.2200E+03  0.0000E+00  0.0000E+00  1.6214E+03  0.0000E+00
           5.0531E+03  0.0000E+00  0.0000E+00  0.0000E+00  9.0000E+01  9.0000E+01  9.0000E+01  0.0000E+00  6.7296E-01
 ------------------------------------------------------------------------------------------------------------------------
     3900 -8.3511E+02  3.0121E+02 -1.1142E+03  9.4549E+01 -1.2087E+03  0.0000E+00  0.0000E+00  0.0000E+00  0.0000E+00
   1.950p -8.8055E+02  3.1368E+02  4.2257E+02 -3.6404E+03  1.2080E+03  0.0000E+00  0.0000E+00  1.6141E+03  0.0000E+00
   5.329m  5.0465E+03  0.0000E+00  0.0000E+00  0.0000E+00  9.0000E+01  9.0000E+01  9.0000E+01  0.0000E+00 -2.2914E-01

  rolling -8.3507E+02  3.0135E+02 -1.1136E+03  1.1088E+02 -1.2245E+03  0.0000E+00  0.0000E+00  0.0000E+00  0.0000E+00
 averages -8.2415E+02  3.1114E+02  2.5671E+02 -3.8610E+03  1.2233E+03  0.0000E+00  0.0000E+00  1.6342E+03  0.0000E+00
           5.0486E+03  0.0000E+00  0.0000E+00  0.0000E+00  9.0000E+01  9.0000E+01  9.0000E+01  0.0000E+00  5.2753E-01
 ------------------------------------------------------------------------------------------------------------------------
 ------------------------------------------------------------------------------------------------------------------------

     step     eng_tot    temp_tot     eng_cfg     eng_vdw     eng_cou     eng_bnd     eng_ang     eng_dih     eng_tet
 time          eng_pv    temp_rot     vir_cfg     vir_vdw     vir_cou     vir_bnd     vir_ang     vir_con     vir_tet
 cpu time      volume    temp_shl     eng_shl     vir_shl       alpha        beta       gamma     vir_pmf       press

 ------------------------------------------------------------------------------------------------------------------------
     4000 -8.3508E+02  3.0765E+02 -1.1209E+03  7.1395E+01 -1.1923E+03  0.0000E+00  0.0000E+00  0.0000E+00  0.0000E+00
   2.000p -9.5644E+02  3.5479E+02  6.3988E+02 -3.3263E+03  1.1915E+03  0.0000E+00  0.0000E+00  1.5556E+03  0.0000E+00
   5.466m  5.0422E+03  0.0000E+00  0.0000E+00  0.0000E+00  9.0000E+01  9.0000E+01  9.0000E+01  0.0000E+00 -1.2425E+00

  rolling -8.3509E+02  2.9841E+02 -1.1126E+03  8.0723E+01 -1.1933E+03  0.0000E+00  0.0000E+00  0.0000E+00  0.0000E+00
 averages -9.1357E+02  2.9524E+02  5.2245E+02 -3.4550E+03  1.1924E+03  0.0000E+00  0.0000E+00  1.5810E+03  0.0000E+00
           5.0444E+03  0.0000E+00  0.0000E+00  0.0000E+00  9.0000E+01  9.0000E+01  9.0000E+01  0.0000E+00 -6.6862E-01
 ------------------------------------------------------------------------------------------------------------------------
     4100 -8.3516E+02  2.9378E+02 -1.1109E+03  7.8211E+01 -1.1891E+03  0.0000E+00  0.0000E+00  0.0000E+00  0.0000E+00
   2.050p -9.3514E+02  3.5015E+02  5.5022E+02 -3.4134E+03  1.1885E+03  0.0000E+00  0.0000E+00  1.5683E+03  0.0000E+00
   5.605m  5.0372E+03  0.0000E+00  0.0000E+00  0.0000E+00  9.0000E+01  9.0000E+01  9.0000E+01  0.0000E+00 -9.3291E-01

  rolling -8.3512E+02  2.9641E+02 -1.1124E+03  6.9076E+01 -1.1814E+03  0.0000E+00  0.0000E+00  0.0000E+00  0.0000E+00
 averages -9.5720E+02  3.1381E+02  6.3796E+02 -3.2932E+03  1.1805E+03  0.0000E+00  0.0000E+00  1.5556E+03  0.0000E+00
           5.0397E+03  0.0000E+00  0.0000E+00  0.0000E+00  9.0000E+01  9.0000E+01  9.0000E+01  0.0000E+00 -1.2427E+00
 ------------------------------------------------------------------------------------------------------------------------
     4200 -8.3511E+02  2.9283E+02 -1.1115E+03  7.9268E+01 -1.1908E+03  0.0000E+00  0.0000E+00  0.0000E+00  0.0000E+00
   2.100p -9.3255E+02  3.0442E+02  5.5558E+02 -3.4356E+03  1.1899E+03  0.0000E+00  0.0000E+00  1.5416E+03  0.0000E+00
   5.744m  5.0314E+03  0.0000E+00  0.0000E+00  0.0000E+00  9.0000E+01  9.0000E+01  9.0000E+01  0.0000E+00 -8.8011E-01

  rolling -8.3513E+02  2.9122E+02 -1.1095E+03  7.6698E+01 -1.1862E+03  0.0000E+00  0.0000E+00  0.0000E+00  0.0000E+00
 averages -9.3592E+02  3.0834E+02  5.6345E+02 -3.3989E+03  1.1851E+03  0.0000E+00  0.0000E+00  1.5615E+03  0.0000E+00
           5.0343E+03  0.0000E+00  0.0000E+00  0.0000E+00  9.0000E+01  9.0000E+01  9.0000E+01  0.0000E+00 -9.3480E-01
 ------------------------------------------------------------------------------------------------------------------------
     4300 -8.3513E+02  2.8534E+02 -1.1067E+03  9.3977E+01 -1.2007E+03  0.0000E+00  0.0000E+00  0.0000E+00  0.0000E+00
   2.150p -8.8250E+02  3.1153E+02  3.8565E+02 -3.6300E+03  1.1998E+03  0.0000E+00  0.0000E+00  1.5805E+03  0.0000E+00
   5.883m  5.0251E+03  0.0000E+00  0.0000E+00  0.0000E+00  9.0000E+01  9.0000E+01  9.0000E+01  0.0000E+00 -1.7830E-01

  rolling -8.3513E+02  2.9887E+02 -1.1173E+03  8.1402E+01 -1.1987E+03  0.0000E+00  0.0000E+00  0.0000E+00  0.0000E+00
 averages -9.2884E+02  3.1877E+02  5.4632E+02 -3.4682E+03  1.1978E+03  0.0000E+00  0.0000E+00  1.5613E+03  0.0000E+00
           5.0283E+03  0.0000E+00  0.0000E+00  0.0000E+00  9.0000E+01  9.0000E+01  9.0000E+01  0.0000E+00 -8.1965E-01
 ------------------------------------------------------------------------------------------------------------------------
     4400 -8.3512E+02  2.7920E+02 -1.1030E+03  9.5581E+01 -1.1985E+03  0.0000E+00  0.0000E+00  0.0000E+00  0.0000E+00
   2.200p -8.6251E+02  2.2535E+02  3.4695E+02 -3.6670E+03  1.1976E+03  0.0000E+00  0.0000E+00  1.5859E+03  0.0000E+00
   6.023m  5.0185E+03  0.0000E+00  0.0000E+00  0.0000E+00  9.0000E+01  9.0000E+01  9.0000E+01  0.0000E+00  1.1270E-01

  rolling -8.3512E+02  2.8577E+02 -1.1077E+03  9.0064E+01 -1.1978E+03  0.0000E+00  0.0000E+00  0.0000E+00  0.0000E+00
 averages -8.9701E+02  2.7403E+02  4.4335E+02 -3.5847E+03  1.1968E+03  0.0000E+00  0.0000E+00  1.5767E+03  0.0000E+00
           5.0218E+03  0.0000E+00  0.0000E+00  0.0000E+00  9.0000E+01  9.0000E+01  9.0000E+01  0.0000E+00 -3.6757E-01
 ------------------------------------------------------------------------------------------------------------------------
     4500 -8.3515E+02  3.0008E+02 -1.1216E+03  1.0680E+02 -1.2284E+03  0.0000E+00  0.0000E+00  0.0000E+00  0.0000E+00
   2.250p -8.5132E+02  2.8494E+02  3.1961E+02 -3.8263E+03  1.2280E+03  0.0000E+00  0.0000E+00  1.6520E+03  0.0000E+00
   6.162m  5.0118E+03  0.0000E+00  0.0000E+00  0.0000E+00  9.0000E+01  9.0000E+01  9.0000E+01  0.0000E+00  2.8412E-01

  rolling -8.3515E+02  2.9544E+02 -1.1171E+03  1.0174E+02 -1.2189E+03  0.0000E+00  0.0000E+00  0.0000E+00  0.0000E+00
 averages -8.5863E+02  2.7127E+02  3.4141E+02 -3.7544E+03  1.2185E+03  0.0000E+00  0.0000E+00  1.6178E+03  0.0000E+00
           5.0151E+03  0.0000E+00  0.0000E+00  0.0000E+00  9.0000E+01  9.0000E+01  9.0000E+01  0.0000E+00  1.7501E-01
 ------------------------------------------------------------------------------------------------------------------------
     4600 -8.3512E+02  3.0149E+02 -1.1240E+03  1.0412E+02 -1.2281E+03  0.0000E+00  0.0000E+00  0.0000E+00  0.0000E+00
   2.300p -8.5542E+02  3.1773E+02  3.1716E+02 -3.7915E+03  1.2276E+03  0.0000E+00  0.0000E+00  1.6188E+03  0.0000E+00
   6.302m  5.0054E+03  0.0000E+00  0.0000E+00  0.0000E+00  9.0000E+01  9.0000E+01  9.0000E+01  0.0000E+00  2.4475E-01

  rolling -8.3512E+02  2.9107E+02 -1.1148E+03  1.1149E+02 -1.2262E+03  0.0000E+00  0.0000E+00  0.0000E+00  0.0000E+00
 averages -8.2764E+02  2.8153E+02  2.3319E+02 -3.8886E+03  1.2256E+03  0.0000E+00  0.0000E+00  1.6208E+03  0.0000E+00
           5.0085E+03  0.0000E+00  0.0000E+00  0.0000E+00  9.0000E+01  9.0000E+01  9.0000E+01  0.0000E+00  6.1671E-01
 ------------------------------------------------------------------------------------------------------------------------
     4700 -8.3516E+02  2.8450E+02 -1.1112E+03  9.1797E+01 -1.2030E+03  0.0000E+00  0.0000E+00  0.0000E+00  0.0000E+00
   2.350p -8.7758E+02  2.5586E+02  3.7679E+02 -3.6283E+03  1.2026E+03  0.0000E+00  0.0000E+00  1.6108E+03  0.0000E+00
   6.441m  4.9992E+03  0.0000E+00  0.0000E+00  0.0000E+00  9.0000E+01  9.0000E+01  9.0000E+01  0.0000E+00 -4.0342E-02

  rolling -8.3515E+02  2.9440E+02 -1.1188E+03  9.3959E+01 -1.2128E+03  0.0000E+00  0.0000E+00  0.0000E+00  0.0000E+00
 averages -8.7758E+02  2.6205E+02  3.9263E+02 -3.6580E+03  1.2121E+03  0.0000E+00  0.0000E+00  1.6180E+03  0.0000E+00
           5.0023E+03  0.0000E+00  0.0000E+00  0.0000E+00  9.0000E+01  9.0000E+01  9.0000E+01  0.0000E+00 -4.9179E-02
 ------------------------------------------------------------------------------------------------------------------------
 ------------------------------------------------------------------------------------------------------------------------

     step     eng_tot    temp_tot     eng_cfg     eng_vdw     eng_cou     eng_bnd     eng_ang     eng_dih     eng_tet
 time          eng_pv    temp_rot     vir_cfg     vir_vdw     vir_cou     vir_bnd     vir_ang     vir_con     vir_tet
 cpu time      volume    temp_shl     eng_shl     vir_shl       alpha        beta       gamma     vir_pmf       press

 ------------------------------------------------------------------------------------------------------------------------
     4800 -8.3513E+02  2.9024E+02 -1.1174E+03  7.3416E+01 -1.1908E+03  0.0000E+00  0.0000E+00  0.0000E+00  0.0000E+00
   2.400p -9.3881E+02  2.6205E+02  5.6348E+02 -3.3755E+03  1.1894E+03  0.0000E+00  0.0000E+00  1.5456E+03  0.0000E+00
   6.581m  4.9929E+03  0.0000E+00  0.0000E+00  0.0000E+00  9.0000E+01  9.0000E+01  9.0000E+01  0.0000E+00 -8.6298E-01

  rolling -8.3516E+02  2.9605E+02 -1.1215E+03  8.5600E+01 -1.2071E+03  0.0000E+00  0.0000E+00  0.0000E+00  0.0000E+00
 averages -9.1211E+02  2.8176E+02  4.8686E+02 -3.5396E+03  1.2061E+03  0.0000E+00  0.0000E+00  1.6060E+03  0.0000E+00
           4.9961E+03  0.0000E+00  0.0000E+00  0.0000E+00  9.0000E+01  9.0000E+01  9.0000E+01  0.0000E+00 -5.0492E-01
 ------------------------------------------------------------------------------------------------------------------------
     4900 -8.3514E+02  3.0465E+02 -1.1307E+03  7.5143E+01 -1.2058E+03  0.0000E+00  0.0000E+00  0.0000E+00  0.0000E+00
   2.450p -9.5008E+02  2.8191E+02  6.0900E+02 -3.3929E+03  1.2044E+03  0.0000E+00  0.0000E+00  1.5323E+03  0.0000E+00
   6.721m  4.9862E+03  0.0000E+00  0.0000E+00  0.0000E+00  9.0000E+01  9.0000E+01  9.0000E+01  0.0000E+00 -1.0004E+00

  rolling -8.3512E+02  2.8701E+02 -1.1153E+03  7.3261E+01 -1.1886E+03  0.0000E+00  0.0000E+00  0.0000E+00  0.0000E+00
 averages -9.4081E+02  2.5891E+02  5.6336E+02 -3.3684E+03  1.1872E+03  0.0000E+00  0.0000E+00  1.5228E+03  0.0000E+00
           4.9896E+03  0.0000E+00  0.0000E+00  0.0000E+00  9.0000E+01  9.0000E+01  9.0000E+01  0.0000E+00 -8.8171E-01
 ------------------------------------------------------------------------------------------------------------------------
     5000 -8.3515E+02  2.9593E+02 -1.1248E+03  8.0623E+01 -1.2054E+03  0.0000E+00  0.0000E+00  0.0000E+00  0.0000E+00
   2.500p -9.4020E+02  2.8157E+02  5.6092E+02 -3.4574E+03  1.2045E+03  0.0000E+00  0.0000E+00  1.5186E+03  0.0000E+00
   6.861m  4.9789E+03  0.0000E+00  0.0000E+00  0.0000E+00  9.0000E+01  9.0000E+01  9.0000E+01  0.0000E+00 -8.4702E-01

  rolling -8.3514E+02  2.9729E+02 -1.1253E+03  8.5608E+01 -1.2109E+03  0.0000E+00  0.0000E+00  0.0000E+00  0.0000E+00
 averages -9.2072E+02  2.8759E+02  5.0430E+02 -3.5241E+03  1.2097E+03  0.0000E+00  0.0000E+00  1.5398E+03  0.0000E+00
           4.9825E+03  0.0000E+00  0.0000E+00  0.0000E+00  9.0000E+01  9.0000E+01  9.0000E+01  0.0000E+00 -5.8770E-01
 ------------------------------------------------------------------------------------------------------------------------


 run terminating. elapsed cpu time =   4.11670E+02, job time =  11.574d, close time =   20.00s



 run terminated after    5000 steps. final averages calculated over    4000 steps.


 ------------------------------------------------------------------------------------------------------------------------

     step     eng_tot    temp_tot     eng_cfg     eng_vdw     eng_cou     eng_bnd     eng_ang     eng_dih     eng_tet
 time          eng_pv    temp_rot     vir_cfg     vir_vdw     vir_cou     vir_bnd     vir_ang     vir_con     vir_tet
 cpu time      volume    temp_shl     eng_shl     vir_shl       alpha        beta       gamma     vir_pmf       press

 ------------------------------------------------------------------------------------------------------------------------
     5000 -8.3512E+02  3.0289E+02 -1.1052E+03  8.7863E+01 -1.1930E+03  0.0000E+00  0.0000E+00  0.0000E+00  0.0000E+00
   2.500p -8.7457E+02  2.9781E+02  4.4518E+02 -3.5409E+03  1.1921E+03  0.0000E+00  0.0000E+00  1.5827E+03  0.0000E+00
   6.862m  5.0746E+03  0.0000E+00  0.0000E+00  0.0000E+00  9.0000E+01  9.0000E+01  9.0000E+01  0.0000E+00 -2.8806E-01

  r.m.s.   3.6430E-02  1.3385E+01  1.0847E+01  1.3666E+01  1.8191E+01  0.0000E+00  0.0000E+00  0.0000E+00  0.0000E+00
 fluctn.   4.7485E+01  2.9798E+01  1.3509E+02  1.9089E+02  1.8225E+01  0.0000E+00  0.0000E+00  4.2951E+01  0.0000E+00
           4.3053E+01  0.0000E+00  0.0000E+00  0.0000E+00  1.5842E-13  1.5842E-13  1.5842E-13  0.0000E+00  6.0426E-01
 ------------------------------------------------------------------------------------------------------------------------


            Approximate 3D Diffusion  coefficients (10^-9 m^2 / s)

            atom        D 
            Na+        0.0000E+00
            Cl-        3.4215E+00
            OW         1.0417E+01
            HW         1.0570E+01


                Average pressure tensor                                       r.m.s. fluctuations 

          -3.8141E-01  8.2584E-02  8.4452E-02                          7.3287E-01  5.6899E-01  5.7347E-01
           8.2584E-02 -3.1456E-01  4.7988E-02                          5.6899E-01  9.6485E-01  6.5081E-01
           8.4452E-02  4.7988E-02 -1.6819E-01                          5.7347E-01  6.5081E-01  1.0660E+00

            trace/3.  -2.8806E-01


                 Average cell vectors                                         r.m.s. fluctuations 

       17.1842573329        0.0000000000        0.0000000000           4.8684E-02  0.0000E+00  0.0000E+00
        0.0000000000       17.1842573329        0.0000000000           0.0000E+00  4.8684E-02  0.0000E+00
        0.0000000000        0.0000000000       17.1842573329           0.0000E+00  0.0000E+00  4.8684E-02


 sample of final configuration

      i       x(i)        y(i)        z(i)       vx(i)       vy(i)       vz(i)       fx(i)       fy(i)       fz(i)


      1 -6.4651E+00 -7.5505E+00  4.2025E+00 -4.6330E+00  1.3503E+00 -1.5484E+00 -1.8117E+03  9.3870E+02 -6.1464E+03
     22  5.6767E+00  7.6943E+00  2.0359E+00  1.9049E+01  1.5254E+01 -7.9658E+00 -6.5185E+02 -1.2895E+03 -1.6342E+02
     43  6.2797E+00 -7.8256E+00 -5.8882E+00 -1.8854E+01  1.3006E+01 -1.2184E+01 -7.8096E+02  1.1040E+03 -1.2082E+03
     64  2.5788E+00 -1.8099E-01 -7.7516E+00 -1.4364E+01 -1.8156E+00  2.0167E+00  1.6069E+03 -1.5917E+02 -1.4839E+03
     85 -2.2441E+00  2.1812E+00 -7.0125E+00 -1.1973E+00 -6.5976E+00 -1.7680E+00 -8.9077E+02 -9.0035E+02  9.6643E+02
    106  6.1210E+00 -1.8121E+00  6.9519E-01  4.7434E+00 -2.8283E+00 -1.9524E+01 -1.0984E+01 -6.0266E+02 -4.3141E+02
    127 -4.8189E+00  4.2568E+00  3.5245E+00 -1.5277E+00  5.6199E+00  3.7913E+00  5.5769E+00 -2.1265E+02 -3.2380E+01
    148  5.2664E+00 -4.0506E+00  2.0351E+00  3.0541E+00  2.6163E+00 -8.1264E+00  3.2604E+02  2.2309E+01 -1.2150E+03
    169 -4.4247E+00 -7.0062E+00  6.4052E+00 -1.1238E+01 -3.3108E+01 -1.4199E+01  8.6247E+02  8.3978E+02 -1.4457E+03
    190  4.1999E+00 -2.9542E+00 -4.9550E+00  5.0713E+00 -1.5466E+01 -1.0302E+01  2.7810E+02  3.9641E+02 -6.3017E+00
    211  1.6798E+00  3.8471E+00 -2.6082E-01 -7.3751E-01 -5.0295E+00  7.3240E+00 -5.6448E+02 -7.3660E+02 -7.4550E+02
    232  2.6690E+00  2.5425E+00  1.3336E+00 -7.0319E+00  1.7714E-01 -4.8379E+00  4.6050E+02  9.7559E+01  5.7587E+03
    253  7.9828E+00  7.6577E+00 -6.2652E+00 -1.4136E+01 -6.9442E+00 -1.5580E+01 -4.7120E+03  3.1798E+03 -8.4530E+02
    274 -4.9783E+00  1.5478E-01 -7.1471E+00  2.8063E+00 -3.9130E+00  7.1452E+00 -3.0446E+03 -2.8786E+03 -2.3228E+03
    295  8.3276E+00 -5.7385E-01  2.1619E+00 -1.0765E+00  5.5691E+00 -2.7725E+00 -1.8456E+03  1.9190E+03  4.8932E+03
    316  2.8623E+00  5.6782E+00 -1.8388E+00 -5.5444E+00 -1.4690E-01 -2.6802E-01 -1.4435E+03 -2.8173E+03 -1.2025E+03
    337 -1.2961E+00  6.9414E+00  6.2959E+00 -6.0891E-01 -1.1590E+01 -1.1539E+01 -4.5092E+02  3.7323E+03 -3.5844E+03
    358  2.6483E+00  8.3441E+00 -2.5973E+00  6.2225E+00 -3.7779E+00  5.4862E+00 -2.2894E+03 -1.5964E+03  8.3473E+02
    379 -7.0866E+00  7.5344E+00 -7.7876E-01  2.5862E+00  3.5091E+00 -7.0450E+00 -2.7988E+03 -1.5435E+03 -2.6960E+03
    400 -1.9895E+00  4.1166E+00  5.1115E-01 -2.5949E+01 -2.1741E+01  1.1225E+01 -2.1071E+03  1.6206E+03  1.8328E+03


            RADIAL DISTRIBUTION FUNCTIONS

calculated using        400 configurations

g(r)  :Na+     Na+     

        r      g(r)         n(r)


g(r)  :Na+     Cl-     

        r      g(r)         n(r)

    7.0250  0.000000E+00  0.000000E+00
    7.0750  0.000000E+00  0.000000E+00
    7.1250  1.988664E+00  1.250000E-02
    7.1750  2.353253E+00  2.750000E-02
    7.2250  3.094393E+00  4.750000E-02
    7.2750  4.196506E+00  7.500000E-02
    7.3250  2.257861E+00  9.000000E-02
    7.3750  1.113675E+00  9.750000E-02
    7.4250  1.831211E+00  1.100000E-01
    7.4750  3.252231E+00  1.325000E-01
    7.5250  5.705166E+00  1.725000E-01
    7.5750  1.724218E+01  2.950000E-01
    7.6250  1.007116E+01  3.675000E-01
    7.6750  1.199700E+01  4.550000E-01
    7.7250  7.782018E+00  5.125000E-01
    7.7750  8.350272E+00  5.750000E-01
    7.8250  8.243900E+00  6.375000E-01
    7.8750  3.906983E+00  6.675000E-01
    7.9250  3.857840E+00  6.975000E-01
    7.9750  9.524043E-01  7.050000E-01

g(r)  :Na+     OW      

        r      g(r)         n(r)

    2.0750  0.000000E+00  0.000000E+00
    2.1250  0.000000E+00  0.000000E+00
    2.1750  1.228204E-01  1.000000E-02
    2.2250  9.095603E-01  8.750000E-02
    2.2750  2.862648E+00  3.425000E-01
    2.3250  5.401091E+00  8.450000E-01
    2.3750  8.523792E+00  1.672500E+00
    2.4250  9.633272E+00  2.647500E+00
    2.4750  7.256118E+00  3.412500E+00
    2.5250  5.855234E+00  4.055000E+00
    2.5750  5.389086E+00  4.670000E+00
    2.6250  2.993400E+00  5.025000E+00
    2.6750  1.826966E+00  5.250000E+00
    2.7250  2.093084E+00  5.517500E+00
    2.7750  1.188368E+00  5.675000E+00
    2.8250  7.280477E-01  5.775000E+00
    2.8750  7.205188E-01  5.877500E+00
    2.9250  4.584052E-01  5.945000E+00
    2.9750  1.477088E-01  5.967500E+00
    3.0250  7.937020E-02  5.980000E+00
    3.0750  1.228961E-01  6.000000E+00
    3.1250  2.082413E-01  6.035000E+00
    3.1750  8.645755E-02  6.050000E+00
    3.2250  1.536288E-01  6.077500E+00
    3.2750  1.218876E-01  6.100000E+00
    3.3250  1.313883E-01  6.125000E+00
    3.3750  8.926694E-02  6.142500E+00
    3.4250  1.362109E-01  6.170000E+00
    3.4750  1.323194E-01  6.197500E+00
    3.5250  8.183152E-02  6.215000E+00
    3.5750  1.363861E-01  6.245000E+00
    3.6250  1.215956E-01  6.272500E+00
    3.6750  2.043527E-01  6.320000E+00
    3.7250  1.674978E-01  6.360000E+00
    3.7750  3.159872E-01  6.437500E+00
    3.8250  4.964197E-01  6.562500E+00
    3.8750  5.901039E-01  6.715000E+00
    3.9250  5.185917E-01  6.852500E+00
    3.9750  4.964344E-01  6.987500E+00
    4.0250  6.814348E-01  7.177500E+00
    4.0750  9.447375E-01  7.447500E+00
    4.1250  1.476866E+00  7.880000E+00
    4.1750  1.375035E+00  8.292500E+00
    4.2250  1.163659E+00  8.650000E+00
    4.2750  1.549907E+00  9.137500E+00
    4.3250  9.008013E-01  9.427500E+00
    4.3750  9.789871E-01  9.750000E+00
    4.4250  1.060848E+00  1.010750E+01
    4.4750  1.167840E+00  1.051000E+01
    4.5250  1.014478E+00  1.086750E+01
    4.5750  1.034065E+00  1.124000E+01
    4.6250  1.113690E+00  1.165000E+01
    4.6750  9.637152E-01  1.201250E+01
    4.7250  1.106087E+00  1.243750E+01
    4.7750  9.556275E-01  1.281250E+01
    4.8250  1.141828E+00  1.327000E+01
    4.8750  1.369125E+00  1.383000E+01
    4.9250  1.287569E+00  1.436750E+01
    4.9750  9.390274E-01  1.476750E+01
    5.0250  9.779605E-01  1.519250E+01
    5.0750  1.105423E+00  1.568250E+01
    5.1250  1.155855E+00  1.620500E+01
    5.1750  1.258381E+00  1.678500E+01
    5.2250  1.064148E+00  1.728500E+01
    5.2750  1.164139E+00  1.784250E+01
    5.3250  1.193608E+00  1.842500E+01
    5.3750  1.091058E+00  1.896750E+01
    5.4250  9.229691E-01  1.943500E+01
    5.4750  7.462727E-01  1.982000E+01
    5.5250  7.375853E-01  2.020750E+01
    5.5750  7.758246E-01  2.062250E+01
    5.6250  7.804572E-01  2.104750E+01
    5.6750  8.524626E-01  2.152000E+01
    5.7250  1.112418E+00  2.214750E+01
    5.7750  1.167283E+00  2.281750E+01
    5.8250  9.889300E-01  2.339500E+01
    5.8750  1.047922E+00  2.401750E+01
    5.9250  1.030311E+00  2.464000E+01
    5.9750  9.765196E-01  2.524000E+01
    6.0250  9.683823E-01  2.584500E+01
    6.0750  1.086331E+00  2.653500E+01
    6.1250  1.091899E+00  2.724000E+01
    6.1750  7.657162E-01  2.774250E+01
    6.2250  8.884140E-01  2.833500E+01
    6.2750  8.927579E-01  2.894000E+01
    6.3250  1.049355E+00  2.966250E+01
    6.3750  1.175930E+00  3.048500E+01
    6.4250  1.066209E+00  3.124250E+01
    6.4750  1.132959E+00  3.206000E+01
    6.5250  9.757779E-01  3.277500E+01
    6.5750  8.937913E-01  3.344000E+01
    6.6250  9.531621E-01  3.416000E+01
    6.6750  9.845788E-01  3.491500E+01
    6.7250  8.607882E-01  3.558500E+01
    6.7750  9.525637E-01  3.633750E+01
    6.8250  1.082107E+00  3.720500E+01
    6.8750  1.054132E+00  3.806250E+01
    6.9250  1.172243E+00  3.903000E+01
    6.9750  1.110710E+00  3.996000E+01
    7.0250  1.092012E+00  4.088750E+01
    7.0750  1.009887E+00  4.175750E+01
    7.1250  1.050129E+00  4.267500E+01
    7.1750  9.734679E-01  4.353750E+01
    7.2250  1.163180E+00  4.458250E+01
    7.2750  1.122545E+00  4.560500E+01
    7.3250  1.031469E+00  4.655750E+01
    7.3750  9.774701E-01  4.747250E+01
    7.4250  1.077648E+00  4.849500E+01
    7.4750  9.774891E-01  4.943500E+01
    7.5250  1.100502E+00  5.050750E+01
    7.5750  1.017671E+00  5.151250E+01
    7.6250  9.294152E-01  5.244250E+01
    7.6750  1.087498E+00  5.354500E+01
    7.7250  9.663626E-01  5.453750E+01
    7.7750  9.587794E-01  5.553500E+01
    7.8250  9.347041E-01  5.652000E+01
    7.8750  1.039988E+00  5.763000E+01
    7.9250  1.110170E+00  5.883000E+01
    7.9750  1.062034E+00  5.999250E+01

g(r)  :Na+     HW      

        r      g(r)         n(r)

    2.3250  0.000000E+00  0.000000E+00
    2.3750  0.000000E+00  0.000000E+00
    2.4250  2.470070E-02  5.000000E-03
    2.4750  1.067076E-01  2.750000E-02
    2.5250  1.253066E-01  5.500000E-02
    2.5750  2.409754E-01  1.100000E-01
    2.6250  3.899852E-01  2.025000E-01
    2.6750  7.510859E-01  3.875000E-01
    2.7250  1.144350E+00  6.800000E-01
    2.7750  1.461881E+00  1.067500E+00
    2.8250  1.765516E+00  1.552500E+00
    2.8750  2.231851E+00  2.187500E+00
    2.9250  2.555185E+00  2.940000E+00
    2.9750  2.929558E+00  3.832500E+00
    3.0250  3.404981E+00  4.905000E+00
    3.0750  3.563988E+00  6.065000E+00
    3.1250  3.502916E+00  7.242500E+00
    3.1750  3.170110E+00  8.342500E+00
    3.2250  2.534875E+00  9.250000E+00
    3.2750  2.282007E+00  1.009250E+01
    3.3250  2.036518E+00  1.086750E+01
    3.3750  1.696072E+00  1.153250E+01
    3.4250  1.294004E+00  1.205500E+01
    3.4750  9.021780E-01  1.243000E+01
    3.5250  8.066250E-01  1.277500E+01
    3.5750  6.364686E-01  1.305500E+01
    3.6250  5.029636E-01  1.328250E+01
    3.6750  4.517269E-01  1.349250E+01
    3.7250  4.501502E-01  1.370750E+01
    3.7750  3.516632E-01  1.388000E+01
    3.8250  4.070642E-01  1.408500E+01
    3.8750  4.498333E-01  1.431750E+01
    3.9250  4.431602E-01  1.455250E+01
    3.9750  4.504682E-01  1.479750E+01
    4.0250  5.110761E-01  1.508250E+01
    4.0750  5.117328E-01  1.537500E+01
    4.1250  4.097662E-01  1.561500E+01
    4.1750  5.541809E-01  1.594750E+01
    4.2250  6.713416E-01  1.636000E+01
    4.2750  6.318850E-01  1.675750E+01
    4.3250  6.251251E-01  1.716000E+01
    4.3750  6.981923E-01  1.762000E+01
    4.4250  6.231552E-01  1.804000E+01
    4.4750  7.616348E-01  1.856500E+01
    4.5250  7.874618E-01  1.912000E+01
    4.5750  8.015739E-01  1.969750E+01
    4.6250  7.741502E-01  2.026750E+01
    4.6750  6.978628E-01  2.079250E+01
    4.7250  7.222098E-01  2.134750E+01
    4.7750  7.581311E-01  2.194250E+01
    4.8250  8.766493E-01  2.264500E+01
    4.8750  8.770956E-01  2.336250E+01
    4.9250  8.773432E-01  2.409500E+01
    4.9750  1.065209E+00  2.500250E+01
    5.0250  9.463206E-01  2.582500E+01
    5.0750  1.125163E+00  2.682250E+01
    5.1250  1.034186E+00  2.775750E+01
    5.1750  1.152611E+00  2.882000E+01
    5.2250  1.194507E+00  2.994250E+01
    5.2750  1.276376E+00  3.116500E+01
    5.3250  1.162871E+00  3.230000E+01
    5.3750  1.204186E+00  3.349750E+01
    5.4250  1.194431E+00  3.470750E+01
    5.4750  1.245403E+00  3.599250E+01
    5.5250  1.213447E+00  3.726750E+01
    5.5750  1.107653E+00  3.845250E+01
    5.6250  1.193640E+00  3.975250E+01
    5.6750  1.100534E+00  4.097250E+01
    5.7250  1.116850E+00  4.223250E+01
    5.7750  1.121550E+00  4.352000E+01
    5.8250  1.183719E+00  4.490250E+01
    5.8750  1.121571E+00  4.623500E+01
    5.9250  1.077895E+00  4.753750E+01
    5.9750  1.061965E+00  4.884250E+01
    6.0250  1.088430E+00  5.020250E+01
    6.0750  1.100107E+00  5.160000E+01
    6.1250  9.641239E-01  5.284500E+01
    6.1750  9.619072E-01  5.410750E+01
    6.2250  9.596371E-01  5.538750E+01
    6.2750  8.982915E-01  5.660500E+01
    6.3250  9.222709E-01  5.787500E+01
    6.3750  9.847072E-01  5.925250E+01
    6.4250  9.395305E-01  6.058750E+01
    6.4750  9.805118E-01  6.200250E+01
    6.5250  9.416598E-01  6.338250E+01
    6.5750  9.794743E-01  6.484000E+01
    6.6250  1.065688E+00  6.645000E+01
    6.6750  1.015551E+00  6.800750E+01
    6.7250  1.055108E+00  6.965000E+01
    6.7750  1.007945E+00  7.124250E+01
    6.8250  1.044686E+00  7.291750E+01
    6.8750  9.865198E-01  7.452250E+01
    6.9250  9.889853E-01  7.615500E+01
    6.9750  9.300705E-01  7.771250E+01
    7.0250  1.031672E+00  7.946500E+01
    7.0750  1.060671E+00  8.129250E+01
    7.1250  1.101634E+00  8.321750E+01
    7.1750  1.117372E+00  8.519750E+01
    7.2250  1.036566E+00  8.706000E+01
    7.2750  1.045696E+00  8.896500E+01
    7.3250  1.035530E+00  9.087750E+01
    7.3750  1.088303E+00  9.291500E+01
    7.4250  1.013094E+00  9.483750E+01
    7.4750  9.657904E-01  9.669500E+01
    7.5250  9.234981E-01  9.849500E+01
    7.5750  9.391937E-01  1.003500E+02
    7.6250  8.357242E-01  1.020225E+02
    7.6750  8.174728E-01  1.036800E+02
    7.7250  9.505405E-01  1.056325E+02
    7.7750  9.864134E-01  1.076850E+02
    7.8250  9.951989E-01  1.097825E+02
    7.8750  9.474669E-01  1.118050E+02
    7.9250  9.332364E-01  1.138225E+02
    7.9750  1.023207E+00  1.160625E+02

g(r)  :Cl-     Cl-     

        r      g(r)         n(r)


g(r)  :Cl-     OW      

        r      g(r)         n(r)

    2.9250  0.000000E+00  0.000000E+00
    2.9750  0.000000E+00  0.000000E+00
    3.0250  3.651029E-01  5.750000E-02
    3.0750  6.298428E-01  1.600000E-01
    3.1250  1.427940E+00  4.000000E-01
    3.1750  2.622546E+00  8.550000E-01
    3.2250  3.477597E+00  1.477500E+00
    3.2750  3.656628E+00  2.152500E+00
    3.3250  3.494928E+00  2.817500E+00
    3.3750  3.392144E+00  3.482500E+00
    3.4250  2.365117E+00  3.960000E+00
    3.4750  2.417837E+00  4.462500E+00
    3.5250  2.162690E+00  4.925000E+00
    3.5750  2.091254E+00  5.385000E+00
    3.6250  2.630887E+00  5.980000E+00
    3.6750  1.849929E+00  6.410000E+00
    3.7250  1.371388E+00  6.737500E+00
    3.7750  1.019314E+00  6.987500E+00
    3.8250  1.161622E+00  7.280000E+00
    3.8750  1.112491E+00  7.567500E+00
    3.9250  1.008897E+00  7.835000E+00
    3.9750  1.075608E+00  8.127500E+00
    4.0250  5.828061E-01  8.290000E+00
    4.0750  9.884754E-01  8.572500E+00
    4.1250  1.092710E+00  8.892500E+00
    4.1750  8.000206E-01  9.132500E+00
    4.2250  7.242352E-01  9.355000E+00
    4.2750  9.776334E-01  9.662500E+00
    4.3250  1.304609E+00  1.008250E+01
    4.3750  9.182747E-01  1.038500E+01
    4.4250  8.234551E-01  1.066250E+01
    4.4750  9.067081E-01  1.097500E+01
    4.5250  6.952365E-01  1.122000E+01
    4.5750  6.384831E-01  1.145000E+01
    4.6250  6.790791E-01  1.170000E+01
    4.6750  7.510333E-01  1.198250E+01
    4.7250  7.287162E-01  1.226250E+01
    4.7750  8.982898E-01  1.261500E+01
    4.8250  1.041996E+00  1.303250E+01
    4.8750  9.534977E-01  1.342250E+01
    4.9250  7.905072E-01  1.375250E+01
    4.9750  7.218773E-01  1.406000E+01
    5.0250  8.341428E-01  1.442250E+01
    5.0750  9.080262E-01  1.482500E+01
    5.1250  1.150324E+00  1.534500E+01
    5.1750  9.817538E-01  1.579750E+01
    5.2250  8.087528E-01  1.617750E+01
    5.2750  5.794592E-01  1.645500E+01
    5.3250  8.503814E-01  1.687000E+01
    5.3750  9.402203E-01  1.733750E+01
    5.4250  7.699635E-01  1.772750E+01
    5.4750  8.044238E-01  1.814250E+01
    5.5250  8.422748E-01  1.858500E+01
    5.5750  6.916990E-01  1.895500E+01
    5.6250  8.493211E-01  1.941750E+01
    5.6750  7.802965E-01  1.985000E+01
    5.7250  8.287737E-01  2.031750E+01
    5.7750  9.756396E-01  2.087750E+01
    5.8250  1.181579E+00  2.156750E+01
    5.8750  8.753728E-01  2.208750E+01
    5.9250  8.523854E-01  2.260250E+01
    5.9750  7.690092E-01  2.307500E+01
    6.0250  9.163618E-01  2.364750E+01
    6.0750  9.288917E-01  2.423750E+01
    6.1250  9.215321E-01  2.483250E+01
    6.1750  8.876213E-01  2.541500E+01
    6.2250  1.057100E+00  2.612000E+01
    6.2750  1.191574E+00  2.692750E+01
    6.3250  1.158285E+00  2.772500E+01
    6.3750  1.079425E+00  2.848000E+01
    6.4250  1.108435E+00  2.926750E+01
    6.4750  7.553059E-01  2.981250E+01
    6.5250  7.608338E-01  3.037000E+01
    6.5750  6.955444E-01  3.088750E+01
    6.6250  8.009209E-01  3.149250E+01
    6.6750  9.291555E-01  3.220500E+01
    6.7250  8.864834E-01  3.289500E+01
    6.7750  7.721779E-01  3.350500E+01
    6.8250  8.108008E-01  3.415500E+01
    6.8750  8.267097E-01  3.482750E+01
    6.9250  8.784249E-01  3.555250E+01
    6.9750  1.036066E+00  3.642000E+01
    7.0250  1.118503E+00  3.737000E+01
    7.0750  1.059220E+00  3.828250E+01
    7.1250  8.784458E-01  3.905000E+01
    7.1750  9.057484E-01  3.985250E+01
    7.2250  9.238655E-01  4.068250E+01
    7.2750  1.062163E+00  4.165000E+01
    7.3250  7.715712E-01  4.236250E+01
    7.3750  8.920082E-01  4.319750E+01
    7.4250  7.456585E-01  4.390500E+01
    7.4750  9.202956E-01  4.479000E+01
    7.5250  1.108198E+00  4.587000E+01
    7.5750  1.118932E+00  4.697500E+01
    7.6250  1.094311E+00  4.807000E+01
    7.6750  1.045576E+00  4.913000E+01
    7.7250  9.128110E-01  5.006750E+01
    7.7750  9.804060E-01  5.108750E+01
    7.8250  1.243109E+00  5.239750E+01
    7.8750  1.236743E+00  5.371750E+01
    7.9250  1.082415E+00  5.488750E+01
    7.9750  1.148823E+00  5.614500E+01

g(r)  :Cl-     HW      

        r      g(r)         n(r)

    1.8750  0.000000E+00  0.000000E+00
    1.9250  0.000000E+00  0.000000E+00
    1.9750  5.585756E-02  7.500000E-03
    2.0250  1.948223E-01  3.500000E-02
    2.0750  7.421874E-01  1.450000E-01
    2.1250  1.286679E+00  3.450000E-01
    2.1750  2.241472E+00  7.100000E-01
    2.2250  2.978076E+00  1.217500E+00
    2.2750  3.480082E+00  1.837500E+00
    2.3250  2.808030E+00  2.360000E+00
    2.3750  3.412092E+00  3.022500E+00
    2.4250  2.186012E+00  3.465000E+00
    2.4750  2.276429E+00  3.945000E+00
    2.5250  1.879598E+00  4.357500E+00
    2.5750  1.741595E+00  4.755000E+00
    2.6250  1.833984E+00  5.190000E+00
    2.6750  1.573220E+00  5.577500E+00
    2.7250  1.379088E+00  5.930000E+00
    2.7750  9.054232E-01  6.170000E+00
    2.8250  8.463555E-01  6.402500E+00
    2.8750  7.117320E-01  6.605000E+00
    2.9250  6.027180E-01  6.782500E+00
    2.9750  4.185083E-01  6.910000E+00
    3.0250  6.746467E-01  7.122500E+00
    3.0750  6.759288E-01  7.342500E+00
    3.1250  6.024123E-01  7.545000E+00
    3.1750  6.412268E-01  7.767500E+00
    3.2250  6.773634E-01  8.010000E+00
    3.2750  6.297526E-01  8.242500E+00
    3.3250  7.423438E-01  8.525000E+00
    3.3750  7.523928E-01  8.820000E+00
    3.4250  8.358397E-01  9.157500E+00
    3.4750  1.148773E+00  9.635000E+00
    3.5250  1.262543E+00  1.017500E+01
    3.5750  1.443420E+00  1.081000E+01
    3.6250  1.790772E+00  1.162000E+01
    3.6750  2.086548E+00  1.259000E+01
    3.7250  1.978567E+00  1.353500E+01
    3.7750  1.824571E+00  1.443000E+01
    3.8250  1.548830E+00  1.521000E+01
    3.8750  1.499444E+00  1.598500E+01
    3.9250  1.386054E+00  1.672000E+01
    3.9750  1.388178E+00  1.747500E+01
    4.0250  1.179062E+00  1.813250E+01
    4.0750  1.058456E+00  1.873750E+01
    4.1250  1.037221E+00  1.934500E+01
    4.1750  9.166903E-01  1.989500E+01
    4.2250  9.236033E-01  2.046250E+01
    4.2750  1.065064E+00  2.113250E+01
    4.3250  9.901049E-01  2.177000E+01
    4.3750  9.030966E-01  2.236500E+01
    4.4250  9.755346E-01  2.302250E+01
    4.4750  8.740666E-01  2.362500E+01
    4.5250  8.725928E-01  2.424000E+01
    4.5750  6.905333E-01  2.473750E+01
    4.6250  8.013134E-01  2.532750E+01
    4.6750  7.643259E-01  2.590250E+01
    4.7250  8.881229E-01  2.658500E+01
    4.7750  8.282105E-01  2.723500E+01
    4.8250  9.733615E-01  2.801500E+01
    4.8750  1.176592E+00  2.897750E+01
    4.9250  1.036044E+00  2.984250E+01
    4.9750  9.331584E-01  3.063750E+01
    5.0250  8.945462E-01  3.141500E+01
    5.0750  9.334058E-01  3.224250E+01
    5.1250  9.512296E-01  3.310250E+01
    5.1750  9.275132E-01  3.395750E+01
    5.2250  1.002960E+00  3.490000E+01
    5.2750  1.080613E+00  3.593500E+01
    5.3250  9.272231E-01  3.684000E+01
    5.3750  1.038265E+00  3.787250E+01
    5.4250  7.823026E-01  3.866500E+01
    5.4750  9.449557E-01  3.964000E+01
    5.5250  9.112748E-01  4.059750E+01
    5.5750  8.342451E-01  4.149000E+01
    5.6250  9.067077E-01  4.247750E+01
    5.6750  9.156080E-01  4.349250E+01
    5.7250  1.041507E+00  4.466750E+01
    5.7750  9.952395E-01  4.581000E+01
    5.8250  9.140111E-01  4.687750E+01
    5.8750  8.964155E-01  4.794250E+01
    5.9250  8.234209E-01  4.893750E+01
    5.9750  8.361449E-01  4.996500E+01
    6.0250  8.363302E-01  5.101000E+01
    6.0750  8.521401E-01  5.209250E+01
    6.1250  7.608448E-01  5.307500E+01
    6.1750  7.885734E-01  5.411000E+01
    6.2250  7.384707E-01  5.509500E+01
    6.2750  8.245099E-01  5.621250E+01
    6.3250  7.824778E-01  5.729000E+01
    6.3750  8.470983E-01  5.847500E+01
    6.4250  8.163711E-01  5.963500E+01
    6.4750  8.349942E-01  6.084000E+01
    6.5250  8.751295E-01  6.212250E+01
    6.5750  9.072318E-01  6.347250E+01
    6.6250  9.250306E-01  6.487000E+01
    6.6750  9.829487E-01  6.637750E+01
    6.7250  1.026201E+00  6.797500E+01
    6.7750  8.750294E-01  6.935750E+01
    6.8250  9.386579E-01  7.086250E+01
    6.8750  9.711534E-01  7.244250E+01
    6.9250  9.208316E-01  7.396250E+01
    6.9750  8.987198E-01  7.546750E+01
    7.0250  8.830288E-01  7.696750E+01
    7.0750  8.923568E-01  7.850500E+01
    7.1250  9.027675E-01  8.008250E+01
    7.1750  9.466622E-01  8.176000E+01
    7.2250  9.266482E-01  8.342500E+01
    7.2750  8.865085E-01  8.504000E+01
    7.3250  9.949208E-01  8.687750E+01
    7.3750  9.227211E-01  8.860500E+01
    7.4250  9.077009E-01  9.032750E+01
    7.4750  9.813887E-01  9.221500E+01
    7.5250  9.440202E-01  9.405500E+01
    7.5750  9.531170E-01  9.593750E+01
    7.6250  9.943744E-01  9.792750E+01
    7.6750  9.950235E-01  9.994500E+01
    7.7250  1.006526E+00  1.020125E+02
    7.7750  9.876149E-01  1.040675E+02
    7.8250  9.750340E-01  1.061225E+02
    7.8750  1.098546E+00  1.084675E+02
    7.9250  1.105544E+00  1.108575E+02
    7.9750  1.074595E+00  1.132100E+02

g(r)  :OW      OW      

        r      g(r)         n(r)

    2.4250  0.000000E+00  0.000000E+00
    2.4750  0.000000E+00  0.000000E+00
    2.5250  4.917197E-03  5.395683E-04
    2.5750  5.043304E-02  6.294964E-03
    2.6250  2.205088E-01  3.244604E-02
    2.6750  6.043153E-01  1.068705E-01
    2.7250  1.157367E+00  2.547842E-01
    2.7750  1.653429E+00  4.739209E-01
    2.8250  1.999512E+00  7.485612E-01
    2.8750  2.209979E+00  1.062950E+00
    2.9250  2.266254E+00  1.396655E+00
    2.9750  2.209138E+00  1.733165E+00
    3.0250  2.067508E+00  2.058777E+00
    3.0750  1.880355E+00  2.364784E+00
    3.1250  1.741907E+00  2.657554E+00
    3.1750  1.671098E+00  2.947482E+00
    3.2250  1.498710E+00  3.215755E+00
    3.2750  1.419197E+00  3.477734E+00
    3.3250  1.368707E+00  3.738165E+00
    3.3750  1.265334E+00  3.986223E+00
    3.4250  1.219039E+00  4.232338E+00
    3.4750  1.171923E+00  4.475899E+00
    3.5250  1.132017E+00  4.717986E+00
    3.5750  1.100574E+00  4.960072E+00
    3.6250  1.020799E+00  5.190935E+00
    3.6750  9.956873E-01  5.422374E+00
    3.7250  9.875138E-01  5.658201E+00
    3.7750  1.005234E+00  5.904748E+00
    3.8250  9.801254E-01  6.151547E+00
    3.8750  9.797715E-01  6.404748E+00
    3.9250  9.366533E-01  6.653094E+00
    3.9750  9.227621E-01  6.904029E+00
    4.0250  9.234590E-01  7.161511E+00
    4.0750  9.267389E-01  7.426367E+00
    4.1250  9.091994E-01  7.692626E+00
    4.1750  9.127333E-01  7.966439E+00
    4.2250  9.048402E-01  8.244424E+00
    4.2750  8.910033E-01  8.524676E+00
    4.3250  8.848233E-01  8.809532E+00
    4.3750  8.767260E-01  9.098345E+00
    4.4250  8.871262E-01  9.397302E+00
    4.4750  8.661607E-01  9.695827E+00
    4.5250  9.158218E-01  1.001856E+01
    4.5750  9.211771E-01  1.035040E+01
    4.6250  9.493429E-01  1.069989E+01
    4.6750  9.763863E-01  1.106716E+01
    4.7250  9.766145E-01  1.144241E+01
    4.7750  9.437108E-01  1.181273E+01
    4.8250  9.462489E-01  1.219187E+01
    4.8750  9.447912E-01  1.257831E+01
    4.9250  9.405261E-01  1.297094E+01
    4.9750  9.570141E-01  1.337860E+01
    5.0250  9.815197E-01  1.380514E+01
    5.0750  9.917322E-01  1.424475E+01
    5.1250  9.898231E-01  1.469219E+01
    5.1750  9.743006E-01  1.514126E+01
    5.2250  9.799352E-01  1.560169E+01
    5.2750  9.714364E-01  1.606691E+01
    5.3250  1.007529E+00  1.655860E+01
    5.3750  1.009200E+00  1.706040E+01
    5.4250  9.973591E-01  1.756558E+01
    5.4750  9.939379E-01  1.807835E+01
    5.5250  1.000473E+00  1.860396E+01
    5.5750  9.918880E-01  1.913453E+01
    5.6250  1.016477E+00  1.968806E+01
    5.6750  1.038816E+00  2.026385E+01
    5.7250  1.037203E+00  2.084892E+01
    5.7750  1.002086E+00  2.142410E+01
    5.8250  1.041812E+00  2.203248E+01
    5.8750  1.033298E+00  2.264629E+01
    5.9250  1.034984E+00  2.327162E+01
    5.9750  1.047358E+00  2.391514E+01
    6.0250  1.028089E+00  2.455745E+01
    6.0750  1.016956E+00  2.520338E+01
    6.1250  1.023652E+00  2.586432E+01
    6.1750  1.034329E+00  2.654309E+01
    6.2250  1.022257E+00  2.722486E+01
    6.2750  1.002900E+00  2.790450E+01
    6.3250  1.018871E+00  2.860601E+01
    6.3750  1.042140E+00  2.933493E+01
    6.4250  1.045678E+00  3.007784E+01
    6.4750  1.036570E+00  3.082579E+01
    6.5250  1.021334E+00  3.157417E+01
    6.5750  1.011226E+00  3.232655E+01
    6.6250  1.014735E+00  3.309306E+01
    6.6750  1.022763E+00  3.387734E+01
    6.7250  9.979524E-01  3.465410E+01
    6.7750  1.015925E+00  3.545665E+01
    6.8250  1.005447E+00  3.626270E+01
    6.8750  9.994098E-01  3.707568E+01
    6.9250  9.907395E-01  3.789338E+01
    6.9750  9.819994E-01  3.871561E+01
    7.0250  9.736186E-01  3.954255E+01
    7.0750  9.819526E-01  4.038849E+01
    7.1250  9.781414E-01  4.124309E+01
    7.1750  9.703214E-01  4.210281E+01
    7.2250  9.482093E-01  4.295468E+01
    7.2750  9.558346E-01  4.382532E+01
    7.3250  9.621122E-01  4.471378E+01
    7.3750  9.575648E-01  4.561014E+01
    7.4250  9.761403E-01  4.653633E+01
    7.4750  9.778632E-01  4.747669E+01
    7.5250  9.835144E-01  4.843518E+01
    7.5750  9.746167E-01  4.939766E+01
    7.6250  9.817923E-01  5.038007E+01
    7.6750  9.900117E-01  5.138374E+01
    7.7250  1.003225E+00  5.241410E+01
    7.7750  1.001842E+00  5.345640E+01
    7.8250  1.005123E+00  5.451561E+01
    7.8750  1.001702E+00  5.558475E+01
    7.9250  9.930294E-01  5.665813E+01
    7.9750  1.014892E+00  5.776903E+01

g(r)  :OW      HW      

        r      g(r)         n(r)

    1.3750  0.000000E+00  0.000000E+00
    1.4250  0.000000E+00  0.000000E+00
    1.4750  4.802946E-04  3.597122E-05
    1.5250  6.065805E-03  5.215827E-04
    1.5750  2.653849E-02  2.787770E-03
    1.6250  9.695236E-02  1.160072E-02
    1.6750  2.823193E-01  3.886691E-02
    1.7250  5.132436E-01  9.143885E-02
    1.7750  7.303402E-01  1.706475E-01
    1.8250  8.295486E-01  2.657554E-01
    1.8750  9.571079E-01  3.815827E-01
    1.9250  9.706402E-01  5.053957E-01
    1.9750  9.198414E-01  6.289029E-01
    2.0250  8.463111E-01  7.483633E-01
    2.0750  7.508033E-01  8.596403E-01
    2.1250  6.643984E-01  9.629137E-01
    2.1750  6.072540E-01  1.061799E+00
    2.2250  5.322479E-01  1.152500E+00
    2.2750  4.811462E-01  1.238219E+00
    2.3250  4.545855E-01  1.322806E+00
    2.3750  4.166578E-01  1.403705E+00
    2.4250  3.984098E-01  1.484353E+00
    2.4750  3.991940E-01  1.568525E+00
    2.5250  4.123889E-01  1.659029E+00
    2.5750  4.077984E-01  1.752104E+00
    2.6250  4.335865E-01  1.854946E+00
    2.6750  4.770410E-01  1.972446E+00
    2.7250  5.099368E-01  2.102788E+00
    2.7750  5.669751E-01  2.253076E+00
    2.8250  6.308219E-01  2.426367E+00
    2.8750  7.023762E-01  2.626205E+00
    2.9250  7.779331E-01  2.855306E+00
    2.9750  8.555541E-01  3.115953E+00
    3.0250  9.532418E-01  3.416205E+00
    3.0750  1.024116E+00  3.749532E+00
    3.1250  1.135215E+00  4.131133E+00
    3.1750  1.217196E+00  4.553489E+00
    3.2250  1.287156E+00  5.014299E+00
    3.2750  1.341543E+00  5.509586E+00
    3.3250  1.366438E+00  6.029586E+00
    3.3750  1.369509E+00  6.566547E+00
    3.4250  1.377031E+00  7.122572E+00
    3.4750  1.362700E+00  7.688993E+00
    3.5250  1.338362E+00  8.261421E+00
    3.5750  1.322733E+00  8.843327E+00
    3.6250  1.299101E+00  9.430935E+00
    3.6750  1.292312E+00  1.003171E+01
    3.7250  1.246819E+00  1.062721E+01
    3.7750  1.206383E+00  1.121897E+01
    3.8250  1.181443E+00  1.181396E+01
    3.8750  1.150978E+00  1.240885E+01
    3.9250  1.104170E+00  1.299437E+01
    3.9750  1.085066E+00  1.358451E+01
    4.0250  1.037924E+00  1.416331E+01
    4.0750  1.028343E+00  1.475110E+01
    4.1250  1.009706E+00  1.534248E+01
    4.1750  1.005661E+00  1.594586E+01
    4.2250  9.894348E-01  1.655381E+01
    4.2750  9.839805E-01  1.717281E+01
    4.3250  9.782611E-01  1.780268E+01
    4.3750  9.707975E-01  1.844228E+01
    4.4250  9.529055E-01  1.908453E+01
    4.4750  9.456901E-01  1.973640E+01
    4.5250  9.455513E-01  2.040282E+01
    4.5750  9.475642E-01  2.108550E+01
    4.6250  9.400361E-01  2.177764E+01
    4.6750  9.289536E-01  2.247649E+01
    4.7250  9.320762E-01  2.319277E+01
    4.7750  9.446275E-01  2.393414E+01
    4.8250  9.468549E-01  2.469290E+01
    4.8750  9.361726E-01  2.545872E+01
    4.9250  9.329648E-01  2.623766E+01
    4.9750  9.373174E-01  2.703621E+01
    5.0250  9.436718E-01  2.785640E+01
    5.0750  9.461463E-01  2.869520E+01
    5.1250  9.425361E-01  2.954734E+01
    5.1750  9.512971E-01  3.042426E+01
    5.2250  9.556856E-01  3.132234E+01
    5.2750  9.632116E-01  3.224489E+01
    5.3250  9.700665E-01  3.319171E+01
    5.3750  9.823065E-01  3.416856E+01
    5.4250  9.792853E-01  3.516061E+01
    5.4750  9.959774E-01  3.618826E+01
    5.5250  9.911271E-01  3.722966E+01
    5.5750  1.001790E+00  3.830140E+01
    5.6250  1.004967E+00  3.939592E+01
    5.6750  1.010537E+00  4.051615E+01
    5.7250  1.012237E+00  4.165813E+01
    5.7750  1.014260E+00  4.282246E+01
    5.8250  1.015571E+00  4.400858E+01
    5.8750  1.024715E+00  4.522601E+01
    5.9250  1.021380E+00  4.646022E+01
    5.9750  1.018554E+00  4.771187E+01
    6.0250  1.029558E+00  4.899831E+01
    6.0750  1.027999E+00  5.030421E+01
    6.1250  1.035909E+00  5.164191E+01
    6.1750  1.028327E+00  5.299158E+01
    6.2250  1.032721E+00  5.436906E+01
    6.2750  1.021730E+00  5.575387E+01
    6.3250  1.011961E+00  5.714737E+01
    6.3750  1.017454E+00  5.857068E+01
    6.4250  1.017806E+00  6.001691E+01
    6.4750  1.007507E+00  6.147086E+01
    6.5250  1.011111E+00  6.295264E+01
    6.5750  9.986076E-01  6.443862E+01
    6.6250  1.004151E+00  6.595565E+01
    6.6750  9.977251E-01  6.748581E+01
    6.7250  1.001430E+00  6.904475E+01
    6.7750  9.991457E-01  7.062335E+01
    6.8250  1.006299E+00  7.223680E+01
    6.8750  1.002317E+00  7.386750E+01
    6.9250  9.937359E-01  7.550784E+01
    6.9750  9.929544E-01  7.717065E+01
    7.0250  9.833277E-01  7.884103E+01
    7.0750  9.863160E-01  8.054041E+01
    7.1250  9.873328E-01  8.226568E+01
    7.1750  9.858405E-01  8.401261E+01
    7.2250  9.810415E-01  8.577534E+01
    7.2750  9.870520E-01  8.757351E+01
    7.3250  9.871106E-01  8.939658E+01
    7.3750  9.906217E-01  9.125121E+01
    7.4250  9.961195E-01  9.314149E+01
    7.4750  9.995398E-01  9.506390E+01
    7.5250  9.980386E-01  9.700919E+01
    7.5750  9.992398E-01  9.898279E+01
    7.6250  9.897909E-01  1.009636E+02
    7.6750  9.919454E-01  1.029749E+02
    7.7250  9.885765E-01  1.050055E+02
    7.7750  9.875112E-01  1.070603E+02
    7.8250  9.891827E-01  1.091451E+02
    7.8750  9.908756E-01  1.112603E+02
    7.9250  9.968897E-01  1.134154E+02
    7.9750  9.977134E-01  1.155996E+02

g(r)  :HW      HW      

        r      g(r)         n(r)

    1.2750  0.000000E+00  0.000000E+00
    1.3250  0.000000E+00  0.000000E+00
    1.3750  1.105376E-03  7.194245E-05
    1.4250  1.029174E-03  1.438849E-04
    1.4750  1.440884E-03  2.517986E-04
    1.5250  4.043870E-03  5.755396E-04
    1.5750  8.635541E-03  1.312950E-03
    1.6250  1.503751E-02  2.679856E-03
    1.6750  2.253340E-02  4.856115E-03
    1.7250  4.249228E-02  9.208633E-03
    1.7750  7.280185E-02  1.710432E-02
    1.8250  1.149885E-01  3.028777E-02
    1.8750  1.661563E-01  5.039568E-02
    1.9250  2.377251E-01  8.071942E-02
    1.9750  3.126416E-01  1.226978E-01
    2.0250  4.251943E-01  1.827158E-01
    2.0750  5.141674E-01  2.589209E-01
    2.1250  6.141809E-01  3.543885E-01
    2.1750  7.042291E-01  4.690647E-01
    2.2250  7.959972E-01  6.047122E-01
    2.2750  9.126231E-01  7.673022E-01
    2.3250  9.694861E-01  9.476978E-01
    2.3750  1.027379E+00  1.147176E+00
    2.4250  1.072437E+00  1.364263E+00
    2.4750  1.122093E+00  1.600863E+00
    2.5250  1.124153E+00  1.847572E+00
    2.5750  1.147273E+00  2.109424E+00
    2.6250  1.154790E+00  2.383327E+00
    2.6750  1.152770E+00  2.667266E+00
    2.7250  1.114515E+00  2.952140E+00
    2.7750  1.081161E+00  3.238723E+00
    2.8250  1.060449E+00  3.530036E+00
    2.8750  1.024517E+00  3.821529E+00
    2.9250  9.944938E-01  4.114406E+00
    2.9750  9.532001E-01  4.404802E+00
    3.0250  9.350837E-01  4.699335E+00
    3.0750  9.168031E-01  4.997734E+00
    3.1250  8.953519E-01  5.298705E+00
    3.1750  8.995110E-01  5.610827E+00
    3.2250  8.997182E-01  5.932932E+00
    3.2750  9.026601E-01  6.266187E+00
    3.3250  9.060592E-01  6.610989E+00
    3.3750  9.499635E-01  6.983453E+00
    3.4250  9.312052E-01  7.359460E+00
    3.4750  9.732273E-01  7.763993E+00
    3.5250  9.915238E-01  8.188076E+00
    3.5750  1.014719E+00  8.634478E+00
    3.6250  1.033125E+00  9.101781E+00
    3.6750  1.032712E+00  9.581871E+00
    3.7250  1.061020E+00  1.008863E+01
    3.7750  1.074533E+00  1.061572E+01
    3.8250  1.073481E+00  1.115633E+01
    3.8750  1.084966E+00  1.171710E+01
    3.9250  1.090162E+00  1.229520E+01
    3.9750  1.101931E+00  1.289451E+01
    4.0250  1.098236E+00  1.350694E+01
    4.0750  1.092911E+00  1.413164E+01
    4.1250  1.078369E+00  1.476324E+01
    4.1750  1.082132E+00  1.541250E+01
    4.2250  1.066419E+00  1.606775E+01
    4.2750  1.046394E+00  1.672601E+01
    4.3250  1.035385E+00  1.739266E+01
    4.3750  1.030664E+00  1.807171E+01
    4.4250  1.013454E+00  1.875477E+01
    4.4750  1.010321E+00  1.945119E+01
    4.5250  1.002765E+00  2.015793E+01
    4.5750  1.000239E+00  2.087856E+01
    4.6250  9.911624E-01  2.160835E+01
    4.6750  9.848256E-01  2.234923E+01
    4.7250  9.917337E-01  2.311135E+01
    4.7750  9.932338E-01  2.389086E+01
    4.8250  9.897907E-01  2.468403E+01
    4.8750  1.005429E+00  2.550651E+01
    4.9250  1.000758E+00  2.634205E+01
    4.9750  9.907710E-01  2.718613E+01
    5.0250  9.921767E-01  2.804849E+01
    5.0750  9.927263E-01  2.892858E+01
    5.1250  9.972434E-01  2.983018E+01
    5.1750  9.964846E-01  3.074876E+01
    5.2250  9.925480E-01  3.168147E+01
    5.2750  9.889378E-01  3.262867E+01
    5.3250  9.817863E-01  3.358692E+01
    5.3750  9.733358E-01  3.455486E+01
    5.4250  9.759831E-01  3.554356E+01
    5.4750  9.804111E-01  3.655514E+01
    5.5250  9.875495E-01  3.759279E+01
    5.5750  9.817170E-01  3.864306E+01
    5.6250  9.810542E-01  3.971153E+01
    5.6750  9.800514E-01  4.079797E+01
    5.7250  9.861077E-01  4.191047E+01
    5.7750  9.914167E-01  4.304858E+01
    5.8250  9.914093E-01  4.420647E+01
    5.8750  9.824480E-01  4.537369E+01
    5.9250  9.979078E-01  4.657953E+01
    5.9750  9.976395E-01  4.780549E+01
    6.0250  9.904198E-01  4.904302E+01
    6.0750  9.883562E-01  5.029856E+01
    6.1250  9.922027E-01  5.157982E+01
    6.1750  9.950556E-01  5.288583E+01
    6.2250  1.000184E+00  5.421991E+01
    6.2750  1.004651E+00  5.558156E+01
    6.3250  1.000664E+00  5.695951E+01
    6.3750  9.998270E-01  5.835817E+01
    6.4250  1.009528E+00  5.979263E+01
    6.4750  1.009027E+00  6.124878E+01
    6.5250  1.007601E+00  6.272541E+01
    6.5750  1.010005E+00  6.422835E+01
    6.6250  1.010616E+00  6.575514E+01
    6.6750  1.005031E+00  6.729651E+01
    6.7250  1.008351E+00  6.886622E+01
    6.7750  1.008537E+00  7.045966E+01
    6.8250  1.009799E+00  7.207872E+01
    6.8750  1.002129E+00  7.370912E+01
    6.9250  1.003259E+00  7.536518E+01
    6.9750  9.984749E-01  7.703723E+01
    7.0250  1.006282E+00  7.874660E+01
    7.0750  1.006933E+00  8.048151E+01
    7.1250  1.000806E+00  8.223032E+01
    7.1750  9.993600E-01  8.400121E+01
    7.2250  1.008799E+00  8.581381E+01
    7.2750  9.976454E-01  8.763128E+01
    7.3250  1.006704E+00  8.949054E+01
    7.3750  1.004945E+00  9.137198E+01
    7.4250  9.960342E-01  9.326210E+01
    7.4750  9.957993E-01  9.517732E+01
    7.5250  9.931387E-01  9.711306E+01
    7.5750  9.919549E-01  9.907227E+01
    7.6250  9.896201E-01  1.010528E+02
    7.6750  9.908189E-01  1.030617E+02
    7.7250  1.001211E+00  1.051183E+02
    7.7750  9.953510E-01  1.071894E+02
    7.8250  9.930911E-01  1.092825E+02
    7.8750  9.869155E-01  1.113892E+02
    7.9250  9.860243E-01  1.135208E+02
    7.9750  9.870742E-01  1.156817E+02

 time elapsed since job start =         411.718 seconds

