
                    DL_POLY Classic 1.2

                              Running on    8 nodes


 ************************************************************************************************************************
 ************************************************************************************************************************
 ************************************************************************************************************************
 ***************     TEST CASE 14:  CARBON DIAMOND WITH TERSOFF POTENTIAL                                 ***************
 ************************************************************************************************************************
 ************************************************************************************************************************
 ************************************************************************************************************************


 SIMULATION CONTROL PARAMETERS


 velocity verlet integration selected

 simulation pressure (katm)       0.0000E+00

 simulation temperature           3.0000E+02

 Nose-Hoover (Melchionna) anisotropic N-P-T 
 thermostat relaxation time       1.0000E+00
 barostat relaxation time         1.0000E+00

 NST mode 0 X<>Y<>Z

 selected number of timesteps         1000

 equilibration period                  200

 simulation timestep              1.0000E-03

 temperature scaling on
 temperature scaling interval           10

 data printing interval                100

 statistics file interval               10

 real space cut off               2.5000E+00


 electrostatic potential terms off


 short-range potential terms off

 user allocated job time (d)     11.5741

 job closure time        (s)      99.900


SYSTEM SPECIFICATION

 energy units=electron volts 


 number of molecular types               1

 molecular species type                  1


 name of species:             Carbon                                  

 number of molecules                   512

 number of atoms/sites                   1


 atomic characteristics:

                      site     name          mass        charge    repeat    freeze

                         1     C           12.01000     0.00000         1         0


 number of specified tersoff atom potentials         1


                atom        key                              parameters


                C         ters    1.39360E+03  3.48790E+00  3.46740E+02  2.21190E+00  1.80000E+00
                                  2.10000E+00  1.57240E-07  7.27510E-01  3.80490E+04  4.34840E+00
                                 -5.70580E-01


 number of tersoff cross terms         1


                atom    atom              parameters


                C       C         1.00000E+00  1.00000E+00

 configuration file name: 

          TEST CASE 14:  CARBON DIAMOND WITH TERSOFF POTENTIAL                            


 selected image convention               3


 simulation cell vectors


                        14.225911    0.000000    0.000000
                         0.000000   14.225911    0.000000
                         0.000000    0.000000   14.225911


 system volume            2878.99047688    


 link cell algorithm in use


 total degrees of freedom                      1533.
 rotational degrees of freedom                    0.
 shell pseudo degrees of freedom                  0.


 sample of starting configuration

      i       x(i)        y(i)        z(i)       vx(i)       vy(i)       vz(i)


      1  7.1130E+00  7.1130E+00  7.1130E+00  9.4679E+00 -2.3697E+00 -4.9708E+00
     27  3.5565E+00 -5.3347E+00 -5.3347E+00 -1.3066E+00 -4.1098E+00  1.5029E-01
     53  8.8912E-01 -2.6674E+00 -6.2238E+00 -2.5241E-01  5.7149E+00  4.7308E+00
     79 -8.8912E-01  2.6674E+00 -6.2238E+00  1.0264E+00 -5.0206E-01 -2.6621E+00
    105 -3.5565E+00  3.5565E+00  7.1130E+00 -7.4863E+00 -6.8254E+00 -4.0728E-01
    131  7.1130E+00 -5.3347E+00 -1.7782E+00 -2.3304E+00 -1.4140E+01  9.4447E+00
    157  4.4456E+00 -6.2238E+00 -2.6674E+00 -4.9094E-01 -2.3996E+00  1.9369E+00
    183  2.6674E+00 -8.8912E-01 -2.6674E+00 -1.4294E+00  1.5935E+00  1.0738E+00
    209  0.0000E+00  0.0000E+00 -3.5565E+00  3.6877E+00  4.9096E+00  7.7539E+00
    235 -3.5565E+00  5.3347E+00 -1.7782E+00 -2.9608E-01  1.7938E+00 -2.8374E+00
    261 -6.2238E+00 -6.2238E+00  8.8912E-01 -2.6602E+00  2.3745E+00  1.7784E+00
    287  6.2238E+00 -4.4456E+00  8.8912E-01 -6.4837E+00 -3.4392E-01  2.2621E+00
    313  3.5565E+00 -3.5565E+00  0.0000E+00 -3.5956E+00 -2.1971E+00 -6.4056E+00
    339  0.0000E+00  1.7782E+00  1.7782E+00 -1.6946E+00 -6.5773E+00 -3.7484E+00
    365 -2.6674E+00  4.4456E+00  8.8912E-01  5.3989E-01 -9.1567E-01  2.0782E+00
    391 -4.4456E+00 -4.4456E+00  4.4456E+00  8.9728E+00  3.4298E+00 -1.0928E+00
    417  7.1130E+00 -3.5565E+00  3.5565E+00 -5.8569E+00 -1.7411E+00 -4.8437E+00
    443  3.5565E+00 -1.7782E+00  5.3347E+00 -6.4637E-01  3.4533E+00 -2.7260E+00
    469  8.8912E-01  8.8912E-01  4.4456E+00 -4.3456E+00 -2.4408E+00 -1.1378E+00
    495 -8.8912E-01  6.2238E+00  4.4456E+00  5.0377E+00 -6.8657E+00 -1.2760E-02


long range correction for: vdw energy     0.000000E+00
                         : vdw pressure  -0.000000E+00

 time elapsed since job start =           0.527 seconds

 ------------------------------------------------------------------------------------------------------------------------

     step     eng_tot    temp_tot     eng_cfg     eng_vdw     eng_cou     eng_bnd     eng_ang     eng_dih     eng_tet
 time          eng_pv    temp_rot     vir_cfg     vir_vdw     vir_cou     vir_bnd     vir_ang     vir_con     vir_tet
 cpu time      volume    temp_shl     eng_shl     vir_shl       alpha        beta       gamma     vir_pmf       press

 ------------------------------------------------------------------------------------------------------------------------
        1 -3.7536E+03  2.8540E+02 -3.7725E+03 -3.7725E+03  0.0000E+00  0.0000E+00  0.0000E+00  0.0000E+00  0.0000E+00
   1.000f -3.6797E+03  0.0000E+00 -1.8406E+02 -1.8406E+02  0.0000E+00  0.0000E+00  0.0000E+00  0.0000E+00  0.0000E+00
   0.539s  2.8790E+03  0.0000E+00  0.0000E+00  0.0000E+00  9.0000E+01  9.0000E+01  9.0000E+01  0.0000E+00  4.0599E+01

  rolling -3.7536E+03  2.8540E+02 -3.7725E+03 -3.7725E+03  0.0000E+00  0.0000E+00  0.0000E+00  0.0000E+00  0.0000E+00
 averages -3.6797E+03  0.0000E+00 -1.8406E+02 -1.8406E+02  0.0000E+00  0.0000E+00  0.0000E+00  0.0000E+00  0.0000E+00
           2.8790E+03  0.0000E+00  0.0000E+00  0.0000E+00  9.0000E+01  9.0000E+01  9.0000E+01  0.0000E+00  4.0599E+01
 ------------------------------------------------------------------------------------------------------------------------
      100 -3.7339E+03  2.9695E+02 -3.7536E+03 -3.7536E+03  0.0000E+00  0.0000E+00  0.0000E+00  0.0000E+00  0.0000E+00
 100.000f -3.6587E+03  0.0000E+00 -1.8665E+02 -1.8665E+02  0.0000E+00  0.0000E+00  0.0000E+00  0.0000E+00  0.0000E+00
   1.377s  2.8885E+03  0.0000E+00  0.0000E+00  0.0000E+00  9.0002E+01  8.9998E+01  8.9999E+01  0.0000E+00  4.1217E+01

  rolling -3.7339E+03  2.9805E+02 -3.7536E+03 -3.7536E+03  0.0000E+00  0.0000E+00  0.0000E+00  0.0000E+00  0.0000E+00
 averages -3.6460E+03  0.0000E+00 -2.2439E+02 -2.2439E+02  0.0000E+00  0.0000E+00  0.0000E+00  0.0000E+00  0.0000E+00
           2.8837E+03  0.0000E+00  0.0000E+00  0.0000E+00  9.0001E+01  8.9999E+01  8.9999E+01  0.0000E+00  4.8211E+01
 ------------------------------------------------------------------------------------------------------------------------
      200 -3.7336E+03  2.5752E+02 -3.7506E+03 -3.7506E+03  0.0000E+00  0.0000E+00  0.0000E+00  0.0000E+00  0.0000E+00
 200.000f -3.6744E+03  0.0000E+00 -1.4354E+02 -1.4354E+02  0.0000E+00  0.0000E+00  0.0000E+00  0.0000E+00  0.0000E+00
   2.224s  2.8956E+03  0.0000E+00  0.0000E+00  0.0000E+00  9.0002E+01  8.9998E+01  8.9999E+01  0.0000E+00  3.2321E+01

  rolling -3.7348E+03  2.9102E+02 -3.7540E+03 -3.7540E+03  0.0000E+00  0.0000E+00  0.0000E+00  0.0000E+00  0.0000E+00
 averages -3.6710E+03  0.0000E+00 -1.5297E+02 -1.5297E+02  0.0000E+00  0.0000E+00  0.0000E+00  0.0000E+00  0.0000E+00
           2.8922E+03  0.0000E+00  0.0000E+00  0.0000E+00  9.0001E+01  8.9998E+01  8.9999E+01  0.0000E+00  3.4886E+01
 ------------------------------------------------------------------------------------------------------------------------


 switching off temperature scaling at step    200


 ------------------------------------------------------------------------------------------------------------------------
      300 -3.7309E+03  3.0531E+02 -3.7512E+03 -3.7512E+03  0.0000E+00  0.0000E+00  0.0000E+00  0.0000E+00  0.0000E+00
 300.000f -3.7755E+03  0.0000E+00  1.7368E+02  1.7368E+02  0.0000E+00  0.0000E+00  0.0000E+00  0.0000E+00  0.0000E+00
   3.089s  2.9347E+03  0.0000E+00  0.0000E+00  0.0000E+00  8.9995E+01  8.9989E+01  8.9995E+01  0.0000E+00 -2.3949E+01

  rolling -3.7309E+03  3.1880E+02 -3.7521E+03 -3.7521E+03  0.0000E+00  0.0000E+00  0.0000E+00  0.0000E+00  0.0000E+00
 averages -3.7151E+03  0.0000E+00 -5.6735E+00 -5.6735E+00  0.0000E+00  0.0000E+00  0.0000E+00  0.0000E+00  0.0000E+00
           2.9119E+03  0.0000E+00  0.0000E+00  0.0000E+00  8.9996E+01  8.9991E+01  8.9998E+01  0.0000E+00  8.7295E+00
 ------------------------------------------------------------------------------------------------------------------------
      400 -3.7308E+03  3.2540E+02 -3.7526E+03 -3.7526E+03  0.0000E+00  0.0000E+00  0.0000E+00  0.0000E+00  0.0000E+00
 400.000f -3.7259E+03  0.0000E+00  2.7315E+01  2.7315E+01  0.0000E+00  0.0000E+00  0.0000E+00  0.0000E+00  0.0000E+00
   3.949s  2.9156E+03  0.0000E+00  0.0000E+00  0.0000E+00  9.0017E+01  9.0004E+01  8.9995E+01  0.0000E+00  2.8329E+00

  rolling -3.7309E+03  3.1722E+02 -3.7520E+03 -3.7520E+03  0.0000E+00  0.0000E+00  0.0000E+00  0.0000E+00  0.0000E+00
 averages -3.7720E+03  0.0000E+00  1.6497E+02  1.6497E+02  0.0000E+00  0.0000E+00  0.0000E+00  0.0000E+00  0.0000E+00
           2.9335E+03  0.0000E+00  0.0000E+00  0.0000E+00  9.0007E+01  8.9996E+01  8.9993E+01  0.0000E+00 -2.2086E+01
 ------------------------------------------------------------------------------------------------------------------------
      500 -3.7309E+03  3.3636E+02 -3.7533E+03 -3.7533E+03  0.0000E+00  0.0000E+00  0.0000E+00  0.0000E+00  0.0000E+00
 500.000f -3.6947E+03  0.0000E+00 -6.4777E+01 -6.4777E+01  0.0000E+00  0.0000E+00  0.0000E+00  0.0000E+00  0.0000E+00
   4.808s  2.9038E+03  0.0000E+00  0.0000E+00  0.0000E+00  8.9999E+01  8.9996E+01  9.0003E+01  0.0000E+00  1.9823E+01

  rolling -3.7308E+03  3.2165E+02 -3.7522E+03 -3.7522E+03  0.0000E+00  0.0000E+00  0.0000E+00  0.0000E+00  0.0000E+00
 averages -3.6861E+03  0.0000E+00 -9.2332E+01 -9.2332E+01  0.0000E+00  0.0000E+00  0.0000E+00  0.0000E+00  0.0000E+00
           2.9006E+03  0.0000E+00  0.0000E+00  0.0000E+00  9.0010E+01  9.0001E+01  9.0002E+01  0.0000E+00  2.4515E+01
 ------------------------------------------------------------------------------------------------------------------------
      600 -3.7309E+03  2.8209E+02 -3.7497E+03 -3.7497E+03  0.0000E+00  0.0000E+00  0.0000E+00  0.0000E+00  0.0000E+00
 600.000f -3.7897E+03  0.0000E+00  2.1324E+02  2.1324E+02  0.0000E+00  0.0000E+00  0.0000E+00  0.0000E+00  0.0000E+00
   5.670s  2.9406E+03  0.0000E+00  0.0000E+00  0.0000E+00  9.0000E+01  8.9995E+01  8.9982E+01  0.0000E+00 -3.1541E+01

  rolling -3.7309E+03  3.1521E+02 -3.7520E+03 -3.7520E+03  0.0000E+00  0.0000E+00  0.0000E+00  0.0000E+00  0.0000E+00
 averages -3.7560E+03  0.0000E+00  1.1617E+02  1.1617E+02  0.0000E+00  0.0000E+00  0.0000E+00  0.0000E+00  0.0000E+00
           2.9274E+03  0.0000E+00  0.0000E+00  0.0000E+00  8.9997E+01  8.9991E+01  8.9991E+01  0.0000E+00 -1.3351E+01
 ------------------------------------------------------------------------------------------------------------------------
      700 -3.7308E+03  3.3411E+02 -3.7533E+03 -3.7533E+03  0.0000E+00  0.0000E+00  0.0000E+00  0.0000E+00  0.0000E+00
 700.000f -3.6806E+03  0.0000E+00 -1.0777E+02 -1.0777E+02  0.0000E+00  0.0000E+00  0.0000E+00  0.0000E+00  0.0000E+00
   6.530s  2.8977E+03  0.0000E+00  0.0000E+00  0.0000E+00  9.0005E+01  9.0008E+01  8.9999E+01  0.0000E+00  2.7632E+01

  rolling -3.7308E+03  3.1754E+02 -3.7522E+03 -3.7522E+03  0.0000E+00  0.0000E+00  0.0000E+00  0.0000E+00  0.0000E+00
 averages -3.7400E+03  0.0000E+00  6.8089E+01  6.8089E+01  0.0000E+00  0.0000E+00  0.0000E+00  0.0000E+00  0.0000E+00
           2.9208E+03  0.0000E+00  0.0000E+00  0.0000E+00  9.0004E+01  9.0005E+01  8.9988E+01  0.0000E+00 -4.6241E+00
 ------------------------------------------------------------------------------------------------------------------------
 ------------------------------------------------------------------------------------------------------------------------

     step     eng_tot    temp_tot     eng_cfg     eng_vdw     eng_cou     eng_bnd     eng_ang     eng_dih     eng_tet
 time          eng_pv    temp_rot     vir_cfg     vir_vdw     vir_cou     vir_bnd     vir_ang     vir_con     vir_tet
 cpu time      volume    temp_shl     eng_shl     vir_shl       alpha        beta       gamma     vir_pmf       press

 ------------------------------------------------------------------------------------------------------------------------
      800 -3.7309E+03  3.0805E+02 -3.7519E+03 -3.7519E+03  0.0000E+00  0.0000E+00  0.0000E+00  0.0000E+00  0.0000E+00
 800.000f -3.7498E+03  0.0000E+00  9.5486E+01  9.5486E+01  0.0000E+00  0.0000E+00  0.0000E+00  0.0000E+00  0.0000E+00
   7.385s  2.9243E+03  0.0000E+00  0.0000E+00  0.0000E+00  8.9998E+01  8.9986E+01  8.9999E+01  0.0000E+00 -9.8756E+00

  rolling -3.7308E+03  3.1830E+02 -3.7523E+03 -3.7523E+03  0.0000E+00  0.0000E+00  0.0000E+00  0.0000E+00  0.0000E+00
 averages -3.6931E+03  0.0000E+00 -7.2651E+01 -7.2651E+01  0.0000E+00  0.0000E+00  0.0000E+00  0.0000E+00  0.0000E+00
           2.9032E+03  0.0000E+00  0.0000E+00  0.0000E+00  9.0001E+01  8.9996E+01  9.0003E+01  0.0000E+00  2.0867E+01
 ------------------------------------------------------------------------------------------------------------------------
      900 -3.7308E+03  3.5768E+02 -3.7553E+03 -3.7553E+03  0.0000E+00  0.0000E+00  0.0000E+00  0.0000E+00  0.0000E+00
 900.000f -3.7608E+03  0.0000E+00  1.3475E+02  1.3475E+02  0.0000E+00  0.0000E+00  0.0000E+00  0.0000E+00  0.0000E+00
   8.238s  2.9278E+03  0.0000E+00  0.0000E+00  0.0000E+00  9.0001E+01  9.0009E+01  8.9988E+01  0.0000E+00 -1.5752E+01

  rolling -3.7309E+03  3.1339E+02 -3.7522E+03 -3.7522E+03  0.0000E+00  0.0000E+00  0.0000E+00  0.0000E+00  0.0000E+00
 averages -3.7800E+03  0.0000E+00  1.8683E+02  1.8683E+02  0.0000E+00  0.0000E+00  0.0000E+00  0.0000E+00  0.0000E+00
           2.9360E+03  0.0000E+00  0.0000E+00  0.0000E+00  8.9999E+01  8.9997E+01  8.9990E+01  0.0000E+00 -2.6098E+01
 ------------------------------------------------------------------------------------------------------------------------
     1000 -3.7308E+03  2.9500E+02 -3.7511E+03 -3.7511E+03  0.0000E+00  0.0000E+00  0.0000E+00  0.0000E+00  0.0000E+00
   1.000p -3.6721E+03  0.0000E+00 -1.3967E+02 -1.3967E+02  0.0000E+00  0.0000E+00  0.0000E+00  0.0000E+00  0.0000E+00
   9.100s  2.8952E+03  0.0000E+00  0.0000E+00  0.0000E+00  9.0001E+01  9.0004E+01  9.0006E+01  0.0000E+00  3.2522E+01

  rolling -3.7308E+03  3.1500E+02 -3.7524E+03 -3.7524E+03  0.0000E+00  0.0000E+00  0.0000E+00  0.0000E+00  0.0000E+00
 averages -3.6976E+03  0.0000E+00 -6.0579E+01 -6.0579E+01  0.0000E+00  0.0000E+00  0.0000E+00  0.0000E+00  0.0000E+00
           2.9045E+03  0.0000E+00  0.0000E+00  0.0000E+00  9.0002E+01  9.0012E+01  8.9998E+01  0.0000E+00  1.8605E+01
 ------------------------------------------------------------------------------------------------------------------------


 run terminating. elapsed cpu time =   9.10100E+00, job time =  11.574d, close time =   99.90s



 run terminated after    1000 steps. final averages calculated over     800 steps.


 ------------------------------------------------------------------------------------------------------------------------

     step     eng_tot    temp_tot     eng_cfg     eng_vdw     eng_cou     eng_bnd     eng_ang     eng_dih     eng_tet
 time          eng_pv    temp_rot     vir_cfg     vir_vdw     vir_cou     vir_bnd     vir_ang     vir_con     vir_tet
 cpu time      volume    temp_shl     eng_shl     vir_shl       alpha        beta       gamma     vir_pmf       press

 ------------------------------------------------------------------------------------------------------------------------
     1000 -3.7308E+03  3.1714E+02 -3.7522E+03 -3.7522E+03  0.0000E+00  0.0000E+00  0.0000E+00  0.0000E+00  0.0000E+00
   1.000p -3.7300E+03  0.0000E+00  3.8104E+01  3.8104E+01  0.0000E+00  0.0000E+00  0.0000E+00  0.0000E+00  0.0000E+00
   9.126s  2.9172E+03  0.0000E+00  0.0000E+00  0.0000E+00  9.0002E+01  8.9999E+01  8.9995E+01  0.0000E+00  8.1974E-01

  r.m.s.   4.4356E-02  2.2160E+01  1.4833E+00  1.4833E+00  0.0000E+00  0.0000E+00  0.0000E+00  0.0000E+00  0.0000E+00
 fluctn.   4.3620E+01  0.0000E+00  1.3066E+02  1.3066E+02  0.0000E+00  0.0000E+00  0.0000E+00  0.0000E+00  0.0000E+00
           1.6638E+01  0.0000E+00  0.0000E+00  0.0000E+00  5.8110E-03  8.0358E-03  7.0721E-03  0.0000E+00  2.3639E+01
 ------------------------------------------------------------------------------------------------------------------------


            Approximate 3D Diffusion  coefficients (10^-9 m^2 / s)

            atom        D 
            C          0.0000E+00


                Average pressure tensor                                       r.m.s. fluctuations 

           8.2193E-01 -2.1184E-02  1.1025E-01                          2.4106E+01  2.2891E+00  5.9080E+00
          -2.1184E-02  9.0846E-01  2.8977E-02                          2.2891E+00  2.3242E+01  4.9557E+00
           1.1025E-01  2.8977E-02  7.2882E-01                          5.9080E+00  4.9557E+00  2.3608E+01

            trace/3.   8.1974E-01


                 Average cell vectors                                         r.m.s. fluctuations 

       14.2898393037        0.0005634274        0.0001500866           2.7802E-02  8.8290E-04  1.0021E-03
        0.0005630970       14.2879889214       -0.0002580727           8.8282E-04  2.6527E-02  7.2433E-04
        0.0001504257       -0.0002589573       14.2879183506           1.0018E-03  7.2431E-04  2.7226E-02


 sample of final configuration

      i       x(i)        y(i)        z(i)       vx(i)       vy(i)       vz(i)       fx(i)       fy(i)       fz(i)


      1 -7.0837E+00  7.1212E+00  7.0960E+00  2.5002E-01 -1.0355E+00 -2.2907E+00 -1.8026E+04  1.5033E+04 -7.3347E+03
     27  3.5766E+00 -5.3555E+00 -5.3294E+00 -7.8957E-01 -3.4972E+00 -2.9789E+00 -7.8439E+03  3.3666E+03  7.5903E+03
     53  8.9095E-01 -2.6607E+00 -6.2160E+00  2.5280E+00  1.0471E-01  5.1456E+00  4.1276E+03 -1.7465E+03 -1.8991E+03
     79 -9.1073E-01  2.6719E+00 -6.2349E+00  3.4025E+00 -4.5225E-01  6.4035E-01  4.7844E+03  1.4471E+03  3.5127E+03
    105 -3.6006E+00  3.5312E+00  7.1047E+00  4.1991E+00  6.4009E+00 -5.7661E-01  4.4465E+03  2.1628E+04 -1.1407E+04
    131  7.0635E+00 -5.2701E+00 -1.7937E+00 -1.0407E+01 -5.4005E+00 -3.6412E+00  2.3897E+04 -4.0826E+04  3.5705E+03
    157  4.4549E+00 -6.2548E+00 -2.6728E+00  4.1377E+00  6.0523E+00 -4.5742E-01  4.6216E+02 -3.0201E+03 -1.8853E+03
    183  2.6201E+00 -8.6235E-01 -2.6683E+00  5.4339E-01 -6.4517E+00 -3.9685E+00  1.7477E+04 -1.4569E+04 -6.9762E+03
    209  2.6464E-03  6.2252E-02 -3.5581E+00 -1.7584E+00 -3.8426E+00 -1.0871E+01 -2.8629E+02 -2.0082E+04 -4.5439E+03
    235 -3.5468E+00  5.3512E+00 -1.7824E+00 -1.1873E+00 -8.9192E+00  7.9430E+00 -1.9190E+04  4.8151E+03  3.8109E+03
    261 -6.2109E+00 -6.1833E+00  9.4041E-01  1.0242E+00 -3.1135E+00 -2.1947E+00  5.1583E+03 -1.1133E+04 -2.2413E+04
    287  6.2082E+00 -4.4633E+00  8.8253E-01  2.1372E+00 -9.8392E+00 -5.8077E-01  2.0358E+04  1.8211E+04  1.3898E+04
    313  3.4987E+00 -3.5530E+00  1.0417E-02 -4.6435E+00  5.4669E+00 -1.2826E+00  2.2546E+04 -2.5876E+04 -7.5513E+03
    339  1.4791E-02  1.7550E+00  1.8128E+00  1.2571E+00  5.1404E+00 -4.1215E+00 -1.3040E+04  8.6023E+03 -1.0514E+04
    365 -2.6513E+00  4.4288E+00  9.1162E-01 -3.7577E+00  3.2754E+00  1.5577E-01 -1.4992E+04  1.5246E+04 -4.7324E+03
    391 -4.3731E+00 -4.4360E+00  4.4614E+00 -1.6341E+00  3.0433E+00  1.8489E+00 -3.3424E+04 -1.5285E+04  1.1543E+04
    417  7.1190E+00 -3.5540E+00  3.5794E+00  4.0581E-01 -3.3283E+00 -3.1472E+00  9.0537E+03 -1.1369E+04  8.3815E+03
    443  3.5730E+00 -1.7826E+00  5.3453E+00 -1.4255E+01 -8.2461E-01 -7.1714E-01 -2.8868E+03 -7.7494E+03  1.4796E+04
    469  8.9583E-01  8.7783E-01  4.4857E+00 -1.8891E+00 -5.5975E-01  5.5814E+00 -4.7389E+03  1.0032E+04 -4.4290E+03
    495 -9.0800E-01  6.1922E+00  4.4346E+00  5.4877E+00 -1.8907E-01  4.6475E-01 -1.8976E+02  2.4233E+04 -1.9151E+03

 time elapsed since job start =           9.126 seconds

