
                    DL_POLY Classic 1.2

                              Running on    8 nodes


 ************************************************************************************************************************
 ************************************************************************************************************************
 ************************************************************************************************************************
 ***************     TEST5: Adiabatic Shell Model MgCl2                                                   ***************
 ************************************************************************************************************************
 ************************************************************************************************************************
 ************************************************************************************************************************


 SIMULATION CONTROL PARAMETERS


 leapfrog verlet integration selected

 simulation temperature           1.2000E+03

 simulation pressure (katm)       0.0000E+00

 Berendsen isotropic N-P-T
 thermostat relaxation time       1.0000E-01
 barostat relaxation time         2.0000E+00

 selected number of timesteps          500

 equilibration period                  100

 multiple timestep interval              8

 scaled restart requested

 temperature scaling on
 temperature scaling interval           10

 data printing interval                 10

 data stacking interval                100

 statistics file interval                5


 radial distribution functions on 
 g(r) collection interval                1
 g(r) bin width                   5.0000E-02

 simulation timestep              5.0000E-04

 primary neighbour cut off        8.3000E+00

 real space cut off               1.2000E+01

 border width of Verlet shell     1.2000E+00

 real space cut off (vdw)         7.0000E+00

 Ewald sum  precision             1.0000E-05

 Electrostatics : Ewald sum  

 Ewald convergence parameter      2.3464E-01
 Ewald kmax1 kmax2 kmax3         6    6    6

 tolerance for SHAKE              1.0000E-05

 tolerance for Quaternions        1.0000E-05

 g(r) printing option on      

 user allocated job time (h)      1.0000

 job closure time        (s)     200.000


SYSTEM SPECIFICATION

 energy units=electron volts 


 number of molecular types               1

 molecular species type                  1


 name of species:             MgCl2                                   

 number of molecules                   256

 number of atoms/sites                   5


 atomic characteristics:

                      site     name          mass        charge    repeat    freeze

                         1     Mg          24.30500     2.00000         1         0
                         2     Cl          31.90770     0.98000         2         0
                         4     Cl-shl       3.54530    -1.98000         2         0

 number of core-shell units              2


 core-shell details:

                          index     index      parameter
                              2         4        19.5980         0.0000
                              3         5        19.5980         0.0000


 number of specified pair potentials         6


                atom 1  atom 2      key                              parameters


                Mg      Mg        buck     1.90608E+01  3.63000E-01  1.52670E+01
                Cl      Cl        buck     1.90608E+03  3.63000E-01  1.52267E+02
                Mg      Cl        buck     4.91454E+01  2.57000E-01  0.00000E+00
                Mg      Cl-shl    buck     4.91454E+03  2.57000E-01  3.20000E+01
                Cl-shl  Cl-shl    buck     1.90608E+01  3.63000E-01  1.52267E+01
                Cl      Cl-shl    buck     1.90608E+01  3.63000E-01  3.20000E+01


adiabatic shell model in operation

 configuration file name: 

          DL_POLY TEST CASE 5: Adiabatic Shell Model MgCl2 Structure                      


 selected image convention               1


 simulation cell vectors


                        26.344191    0.000000    0.000000
                         0.000000   26.344191    0.000000
                         0.000000    0.000000   26.344191


 system volume            18283.2996576    


 total degrees of freedom                      2301.
 rotational degrees of freedom                    0.
 shell pseudo degrees of freedom               1536.


 sample of starting configuration

      i       x(i)        y(i)        z(i)       vx(i)       vy(i)       vz(i)       fx(i)       fy(i)       fz(i)


      1 -1.1263E+01 -1.2284E+01 -1.2351E+01  6.0912E+00  6.7043E+00  4.0902E+00 -7.4021E+03  6.7022E+03 -3.8339E+03
     65  9.8539E+00 -1.1916E+01 -6.7825E+00  1.0478E+01 -7.6902E+00 -7.9251E+00  4.9804E+03  2.6798E+03  9.0182E+02
    129  4.0961E+00 -7.7675E+00  6.6730E+00  4.0163E+00  7.9652E-01  3.9847E+00 -6.5221E+03  4.7503E+03  3.6094E+03
    193 -1.2610E+01  4.9412E+00 -8.1750E+00 -8.9558E+00 -3.1584E+00  3.7997E+00  6.2678E+03  1.1107E+04  4.7265E+03
    257  1.2342E+00  9.1069E+00  1.2331E+01  8.1194E+00 -1.5131E+01  2.4189E-02  4.9667E+03  5.8039E+03  6.3560E+03
    321 -5.9471E+00  1.2697E+01  1.4242E+00  8.2556E+00  5.0991E+00  1.3176E+00  4.2444E+03 -5.4857E+03 -2.9880E+03
    385 -3.0181E+00  3.2416E+00  8.9229E-01 -4.8124E+00  3.7465E+00 -7.3389E+00 -5.3363E+03  3.1128E+03 -1.2438E+03
    449  1.0621E+01  8.4126E+00 -7.3493E+00 -6.5967E+00 -6.0361E+00 -4.5004E+00  7.9309E+02  3.6246E+02  1.0316E+03
    513 -1.3045E+01 -3.1659E+00 -1.2158E+01  3.5679E+00  6.8243E+00  3.9263E+00  1.5640E+04 -4.4063E+03  2.3099E+03
    577  8.6217E+00  2.2038E+00 -5.1418E+00  3.5299E+00 -5.6877E+00  8.3177E+00 -2.1111E+04 -2.5778E+03 -1.5136E+04
    641  7.8829E-01  1.3004E+00 -3.8584E+00  7.0522E+00  1.6745E+00  1.2746E+01 -2.0626E+03 -1.2115E+04 -6.8330E+03
    705 -1.0303E+01  6.6798E+00  1.1103E+01 -2.2042E+00 -9.7266E+00 -7.4432E+00  7.2565E+02  7.4963E+03  2.4409E+03
    769 -2.3916E+00 -1.1808E+01  9.5291E+00  1.3627E+00 -6.8229E+00 -1.7789E+00  1.0020E+00  2.4832E+03 -1.7306E+03
    833 -1.1548E+01 -4.4992E+00  5.3521E+00  5.0472E+00 -2.8054E+00 -2.5424E+00  5.9815E+03  8.7636E+02  7.2586E+02
    897  1.0823E+01 -7.9532E+00  7.0469E+00 -6.2271E-01 -5.1100E+00  5.0694E+00 -4.2531E+03 -1.1470E+04 -2.0930E+02
    961  8.2070E+00 -3.5473E+00  9.2043E+00 -3.3066E-01  8.1834E-01 -3.3906E+00  5.0310E+03 -3.7214E+03 -2.6384E+04
   1025  7.9678E+00  7.8499E+00 -8.9397E+00  7.2540E+00  1.1645E+00  2.7186E+00 -1.2802E+03 -2.5374E+01  3.5424E+03
   1089  2.3243E+00  1.0408E+01  2.8627E+00 -2.7454E+00 -1.7287E+00  4.6280E+00 -3.1988E+03  5.5206E+03 -4.9688E+03
   1153  1.0420E+01  9.3789E+00  5.7862E+00  5.6914E+00  1.0981E-01 -2.4550E+00  3.6995E+03 -1.9473E+03 -4.0438E+03
   1217  5.5424E+00 -5.3173E+00 -3.2249E+00 -2.5599E+00  4.7869E-01 -7.5146E+00  1.6996E+03  3.7264E+03 -7.3837E+03


long range correction for: vdw energy    -0.234027E+02
                         : vdw pressure  -0.404795E+01

 time elapsed since job start =           0.415 seconds

 ------------------------------------------------------------------------------------------------------------------------

     step     eng_tot    temp_tot     eng_cfg     eng_vdw     eng_cou     eng_bnd     eng_ang     eng_dih     eng_tet
 time          eng_pv    temp_rot     vir_cfg     vir_vdw     vir_cou     vir_bnd     vir_ang     vir_con     vir_tet
 cpu time      volume    temp_shl     eng_shl     vir_shl       alpha        beta       gamma     vir_pmf       press

 ------------------------------------------------------------------------------------------------------------------------
        1 -6.7189E+03  1.2000E+03 -6.8378E+03  6.6364E+02 -7.7002E+03  0.0000E+00  0.0000E+00  0.0000E+00  0.0000E+00
   0.500f -6.7252E+03  0.0000E+00  2.5704E+02 -7.8413E+03  7.7009E+03  0.0000E+00  0.0000E+00  0.0000E+00  0.0000E+00
   0.440s  1.8283E+04  1.2938E+00  1.9870E+02  3.9740E+02  9.0000E+01  9.0000E+01  9.0000E+01  0.0000E+00 -5.5057E-01

  rolling -6.7189E+03  1.2000E+03 -6.8378E+03  6.6364E+02 -7.7002E+03  0.0000E+00  0.0000E+00  0.0000E+00  0.0000E+00
 averages -6.7252E+03  0.0000E+00  2.5704E+02 -7.8413E+03  7.7009E+03  0.0000E+00  0.0000E+00  0.0000E+00  0.0000E+00
           1.8283E+04  1.2938E+00  1.9870E+02  3.9740E+02  9.0000E+01  9.0000E+01  9.0000E+01  0.0000E+00 -5.5057E-01
 ------------------------------------------------------------------------------------------------------------------------
       10 -6.7189E+03  1.2275E+03 -6.8406E+03  6.6051E+02 -7.6971E+03  0.0000E+00  0.0000E+00  0.0000E+00  0.0000E+00
   5.000f -6.7291E+03  0.0000E+00  2.7419E+02 -7.8157E+03  7.6979E+03  0.0000E+00  0.0000E+00  0.0000E+00  0.0000E+00
   0.526s  1.8282E+04  6.9982E+01  1.9603E+02  3.9206E+02  9.0000E+01  9.0000E+01  9.0000E+01  0.0000E+00 -8.8795E-01

  rolling -6.7188E+03  1.2135E+03 -6.8391E+03  6.6188E+02 -7.6984E+03  0.0000E+00  0.0000E+00  0.0000E+00  0.0000E+00
 averages -6.7275E+03  0.0000E+00  2.6669E+02 -7.8272E+03  7.6991E+03  0.0000E+00  0.0000E+00  0.0000E+00  0.0000E+00
           1.8283E+04  3.3884E+01  1.9743E+02  3.9486E+02  9.0000E+01  9.0000E+01  9.0000E+01  0.0000E+00 -7.5136E-01
 ------------------------------------------------------------------------------------------------------------------------
       20 -6.7218E+03  1.1928E+03 -6.8400E+03  6.5886E+02 -7.6951E+03  0.0000E+00  0.0000E+00  0.0000E+00  0.0000E+00
  10.000f -6.7386E+03  0.0000E+00  2.8715E+02 -7.8012E+03  7.6958E+03  0.0000E+00  0.0000E+00  0.0000E+00  0.0000E+00
   0.610s  1.8279E+04  3.9516E+01  1.9625E+02  3.9250E+02  9.0000E+01  9.0000E+01  9.0000E+01  0.0000E+00 -1.4601E+00

  rolling -6.7202E+03  1.2030E+03 -6.8395E+03  6.6074E+02 -7.6970E+03  0.0000E+00  0.0000E+00  0.0000E+00  0.0000E+00
 averages -6.7320E+03  0.0000E+00  2.7373E+02 -7.8173E+03  7.6976E+03  0.0000E+00  0.0000E+00  0.0000E+00  0.0000E+00
           1.8281E+04  2.4918E+01  1.9670E+02  3.9341E+02  9.0000E+01  9.0000E+01  9.0000E+01  0.0000E+00 -1.0145E+00
 ------------------------------------------------------------------------------------------------------------------------
       30 -6.7213E+03  1.1941E+03 -6.8397E+03  6.5857E+02 -7.6953E+03  0.0000E+00  0.0000E+00  0.0000E+00  0.0000E+00
  15.000f -6.7400E+03  0.0000E+00  2.9289E+02 -7.7974E+03  7.6961E+03  0.0000E+00  0.0000E+00  0.0000E+00  0.0000E+00
   0.695s  1.8276E+04  3.5440E+01  1.9711E+02  3.9423E+02  9.0000E+01  9.0000E+01  9.0000E+01  0.0000E+00 -1.6183E+00

  rolling -6.7206E+03  1.1999E+03 -6.8395E+03  6.6003E+02 -7.6962E+03  0.0000E+00  0.0000E+00  0.0000E+00  0.0000E+00
 averages -6.7344E+03  0.0000E+00  2.7937E+02 -7.8109E+03  7.6969E+03  0.0000E+00  0.0000E+00  0.0000E+00  0.0000E+00
           1.8280E+04  2.1284E+01  1.9669E+02  3.9339E+02  9.0000E+01  9.0000E+01  9.0000E+01  0.0000E+00 -1.1954E+00
 ------------------------------------------------------------------------------------------------------------------------
       40 -6.7209E+03  1.1929E+03 -6.8391E+03  6.5954E+02 -7.6965E+03  0.0000E+00  0.0000E+00  0.0000E+00  0.0000E+00
  20.000f -6.7387E+03  0.0000E+00  2.9001E+02 -7.8025E+03  7.6968E+03  0.0000E+00  0.0000E+00  0.0000E+00  0.0000E+00
   0.779s  1.8273E+04  3.5267E+01  1.9787E+02  3.9573E+02  9.0000E+01  9.0000E+01  9.0000E+01  0.0000E+00 -1.5427E+00

  rolling -6.7207E+03  1.1983E+03 -6.8395E+03  6.5978E+02 -7.6961E+03  0.0000E+00  0.0000E+00  0.0000E+00  0.0000E+00
 averages -6.7356E+03  0.0000E+00  2.8249E+02 -7.8081E+03  7.6968E+03  0.0000E+00  0.0000E+00  0.0000E+00  0.0000E+00
           1.8279E+04  1.9438E+01  1.9690E+02  3.9379E+02  9.0000E+01  9.0000E+01  9.0000E+01  0.0000E+00 -1.2945E+00
 ------------------------------------------------------------------------------------------------------------------------
       50 -6.7205E+03  1.1881E+03 -6.8383E+03  6.6141E+02 -7.6983E+03  0.0000E+00  0.0000E+00  0.0000E+00  0.0000E+00
  25.000f -6.7363E+03  0.0000E+00  2.8311E+02 -7.8129E+03  7.6989E+03  0.0000E+00  0.0000E+00  0.0000E+00  0.0000E+00
   0.881s  1.8270E+04  3.5417E+01  1.9859E+02  3.9717E+02  9.0000E+01  9.0000E+01  9.0000E+01  0.0000E+00 -1.3712E+00

  rolling -6.7206E+03  1.1968E+03 -6.8393E+03  6.5994E+02 -7.6964E+03  0.0000E+00  0.0000E+00  0.0000E+00  0.0000E+00
 averages -6.7359E+03  0.0000E+00  2.8328E+02 -7.8081E+03  7.6971E+03  0.0000E+00  0.0000E+00  0.0000E+00  0.0000E+00
           1.8277E+04  1.8344E+01  1.9716E+02  3.9433E+02  9.0000E+01  9.0000E+01  9.0000E+01  0.0000E+00 -1.3258E+00
 ------------------------------------------------------------------------------------------------------------------------
       60 -6.7195E+03  1.1870E+03 -6.8372E+03  6.6273E+02 -7.6992E+03  0.0000E+00  0.0000E+00  0.0000E+00  0.0000E+00
  30.000f -6.7343E+03  0.0000E+00  2.7995E+02 -7.8185E+03  7.6999E+03  0.0000E+00  0.0000E+00  0.0000E+00  0.0000E+00
   0.981s  1.8267E+04  3.5183E+01  1.9928E+02  3.9856E+02  9.0000E+01  9.0000E+01  9.0000E+01  0.0000E+00 -1.2862E+00

  rolling -6.7204E+03  1.1956E+03 -6.8390E+03  6.6033E+02 -7.6967E+03  0.0000E+00  0.0000E+00  0.0000E+00  0.0000E+00
 averages -6.7356E+03  0.0000E+00  2.8273E+02 -7.8096E+03  7.6974E+03  0.0000E+00  0.0000E+00  0.0000E+00  0.0000E+00
           1.8276E+04  1.7599E+01  1.9746E+02  3.9492E+02  9.0000E+01  9.0000E+01  9.0000E+01  0.0000E+00 -1.3170E+00
 ------------------------------------------------------------------------------------------------------------------------
       70 -6.7184E+03  1.1942E+03 -6.8368E+03  6.6217E+02 -7.6990E+03  0.0000E+00  0.0000E+00  0.0000E+00  0.0000E+00
  35.000f -6.7359E+03  0.0000E+00  2.8915E+02 -7.8107E+03  7.6998E+03  0.0000E+00  0.0000E+00  0.0000E+00  0.0000E+00
   1.070s  1.8264E+04  3.5359E+01  2.0002E+02  4.0004E+02  9.0000E+01  9.0000E+01  9.0000E+01  0.0000E+00 -1.5109E+00

  rolling -6.7201E+03  1.1952E+03 -6.8386E+03  6.6067E+02 -7.6971E+03  0.0000E+00  0.0000E+00  0.0000E+00  0.0000E+00
 averages -6.7354E+03  0.0000E+00  2.8279E+02 -7.8105E+03  7.6977E+03  0.0000E+00  0.0000E+00  0.0000E+00  0.0000E+00
           1.8274E+04  1.7074E+01  1.9777E+02  3.9554E+02  9.0000E+01  9.0000E+01  9.0000E+01  0.0000E+00 -1.3209E+00
 ------------------------------------------------------------------------------------------------------------------------
 ------------------------------------------------------------------------------------------------------------------------

     step     eng_tot    temp_tot     eng_cfg     eng_vdw     eng_cou     eng_bnd     eng_ang     eng_dih     eng_tet
 time          eng_pv    temp_rot     vir_cfg     vir_vdw     vir_cou     vir_bnd     vir_ang     vir_con     vir_tet
 cpu time      volume    temp_shl     eng_shl     vir_shl       alpha        beta       gamma     vir_pmf       press

 ------------------------------------------------------------------------------------------------------------------------
       80 -6.7182E+03  1.2070E+03 -6.8379E+03  6.5901E+02 -7.6978E+03  0.0000E+00  0.0000E+00  0.0000E+00  0.0000E+00
  40.000f -6.7431E+03  0.0000E+00  3.1399E+02 -7.7860E+03  7.6982E+03  0.0000E+00  0.0000E+00  0.0000E+00  0.0000E+00
   1.159s  1.8261E+04  3.5374E+01  2.0091E+02  4.0183E+02  9.0000E+01  9.0000E+01  9.0000E+01  0.0000E+00 -2.1550E+00

  rolling -6.7199E+03  1.1958E+03 -6.8384E+03  6.6067E+02 -7.6972E+03  0.0000E+00  0.0000E+00  0.0000E+00  0.0000E+00
 averages -6.7359E+03  0.0000E+00  2.8508E+02 -7.8090E+03  7.6979E+03  0.0000E+00  0.0000E+00  0.0000E+00  0.0000E+00
           1.8273E+04  1.6685E+01  1.9811E+02  3.9621E+02  9.0000E+01  9.0000E+01  9.0000E+01  0.0000E+00 -1.3841E+00
 ------------------------------------------------------------------------------------------------------------------------
       90 -6.7192E+03  1.2180E+03 -6.8400E+03  6.5444E+02 -7.6965E+03  0.0000E+00  0.0000E+00  0.0000E+00  0.0000E+00
  45.000f -6.7548E+03  0.0000E+00  3.4814E+02 -7.7535E+03  7.6975E+03  0.0000E+00  0.0000E+00  0.0000E+00  0.0000E+00
   1.253s  1.8255E+04  3.5309E+01  2.0209E+02  4.0418E+02  9.0000E+01  9.0000E+01  9.0000E+01  0.0000E+00 -3.0785E+00

  rolling -6.7198E+03  1.1969E+03 -6.8385E+03  6.6021E+02 -7.6972E+03  0.0000E+00  0.0000E+00  0.0000E+00  0.0000E+00
 averages -6.7375E+03  0.0000E+00  2.9032E+02 -7.8044E+03  7.6978E+03  0.0000E+00  0.0000E+00  0.0000E+00  0.0000E+00
           1.8271E+04  1.6377E+01  1.9848E+02  3.9696E+02  9.0000E+01  9.0000E+01  9.0000E+01  0.0000E+00 -1.5290E+00
 ------------------------------------------------------------------------------------------------------------------------
      100 -6.7215E+03  1.2211E+03 -6.8426E+03  6.5054E+02 -7.6965E+03  0.0000E+00  0.0000E+00  0.0000E+00  0.0000E+00
  50.000f -6.7664E+03  0.0000E+00  3.7672E+02 -7.7277E+03  7.6975E+03  0.0000E+00  0.0000E+00  0.0000E+00  0.0000E+00
   1.345s  1.8248E+04  3.5818E+01  2.0343E+02  4.0686E+02  9.0000E+01  9.0000E+01  9.0000E+01  0.0000E+00 -3.8878E+00

  rolling -6.7200E+03  1.1980E+03 -6.8387E+03  6.5941E+02 -7.6970E+03  0.0000E+00  0.0000E+00  0.0000E+00  0.0000E+00
 averages -6.7400E+03  0.0000E+00  2.9774E+02 -7.7978E+03  7.6977E+03  0.0000E+00  0.0000E+00  0.0000E+00  0.0000E+00
           1.8269E+04  1.6151E+01  1.9890E+02  3.9781E+02  9.0000E+01  9.0000E+01  9.0000E+01  0.0000E+00 -1.7369E+00
 ------------------------------------------------------------------------------------------------------------------------


 switching off temperature scaling at step    100


 ------------------------------------------------------------------------------------------------------------------------
      110 -6.7240E+03  1.2153E+03 -6.8445E+03  6.4894E+02 -7.6980E+03  0.0000E+00  0.0000E+00  0.0000E+00  0.0000E+00
  55.000f -6.7733E+03  0.0000E+00  3.8880E+02 -7.7195E+03  7.6991E+03  0.0000E+00  0.0000E+00  0.0000E+00  0.0000E+00
   1.428s  1.8239E+04  3.5132E+01  2.0458E+02  4.0917E+02  9.0000E+01  9.0000E+01  9.0000E+01  0.0000E+00 -4.2722E+00

  rolling -6.7205E+03  1.1972E+03 -6.8392E+03  6.5816E+02 -7.6969E+03  0.0000E+00  0.0000E+00  0.0000E+00  0.0000E+00
 averages -6.7445E+03  0.0000E+00  3.0957E+02 -7.7872E+03  7.6976E+03  0.0000E+00  0.0000E+00  0.0000E+00  0.0000E+00
           1.8265E+04  1.4155E+01  1.9956E+02  3.9913E+02  9.0000E+01  9.0000E+01  9.0000E+01  0.0000E+00 -2.0834E+00
 ------------------------------------------------------------------------------------------------------------------------
      120 -6.7241E+03  1.2221E+03 -6.8452E+03  6.5094E+02 -7.7068E+03  0.0000E+00  0.0000E+00  0.0000E+00  0.0000E+00
  60.000f -6.7726E+03  0.0000E+00  3.8796E+02 -7.7409E+03  7.7075E+03  0.0000E+00  0.0000E+00  0.0000E+00  0.0000E+00
   1.516s  1.8230E+04  4.7872E+01  2.1067E+02  4.2134E+02  9.0000E+01  9.0000E+01  9.0000E+01  0.0000E+00 -4.2106E+00

  rolling -6.7207E+03  1.2004E+03 -6.8397E+03  6.5717E+02 -7.6976E+03  0.0000E+00  0.0000E+00  0.0000E+00  0.0000E+00
 averages -6.7482E+03  0.0000E+00  3.2046E+02 -7.7793E+03  7.6984E+03  0.0000E+00  0.0000E+00  0.0000E+00  0.0000E+00
           1.8260E+04  1.7647E+01  2.0071E+02  4.0142E+02  9.0000E+01  9.0000E+01  9.0000E+01  0.0000E+00 -2.3806E+00
 ------------------------------------------------------------------------------------------------------------------------
      130 -6.7244E+03  1.1991E+03 -6.8433E+03  6.5568E+02 -7.7130E+03  0.0000E+00  0.0000E+00  0.0000E+00  0.0000E+00
  65.000f -6.7660E+03  0.0000E+00  3.6276E+02 -7.7792E+03  7.7139E+03  0.0000E+00  0.0000E+00  0.0000E+00  0.0000E+00
   1.619s  1.8222E+04  2.1951E+01  2.1402E+02  4.2804E+02  9.0000E+01  9.0000E+01  9.0000E+01  0.0000E+00 -3.6154E+00

  rolling -6.7210E+03  1.2018E+03 -6.8402E+03  6.5666E+02 -7.6992E+03  0.0000E+00  0.0000E+00  0.0000E+00  0.0000E+00
 averages -6.7513E+03  0.0000E+00  3.2909E+02 -7.7757E+03  7.7000E+03  0.0000E+00  0.0000E+00  0.0000E+00  0.0000E+00
           1.8255E+04  1.9199E+01  2.0240E+02  4.0479E+02  9.0000E+01  9.0000E+01  9.0000E+01  0.0000E+00 -2.6224E+00
 ------------------------------------------------------------------------------------------------------------------------
      140 -6.7243E+03  1.1883E+03 -6.8421E+03  6.5847E+02 -7.7063E+03  0.0000E+00  0.0000E+00  0.0000E+00  0.0000E+00
  70.000f -6.7520E+03  0.0000E+00  3.1861E+02 -7.7996E+03  7.7069E+03  0.0000E+00  0.0000E+00  0.0000E+00  0.0000E+00
   1.701s  1.8216E+04  2.9770E+01  2.0567E+02  4.1133E+02  9.0000E+01  9.0000E+01  9.0000E+01  0.0000E+00 -2.4011E+00

  rolling -6.7214E+03  1.2019E+03 -6.8405E+03  6.5650E+02 -7.7007E+03  0.0000E+00  0.0000E+00  0.0000E+00  0.0000E+00
 averages -6.7532E+03  0.0000E+00  3.3380E+02 -7.7750E+03  7.7015E+03  0.0000E+00  0.0000E+00  0.0000E+00  0.0000E+00
           1.8250E+04  2.0518E+01  2.0364E+02  4.0727E+02  9.0000E+01  9.0000E+01  9.0000E+01  0.0000E+00 -2.7587E+00
 ------------------------------------------------------------------------------------------------------------------------
      150 -6.7242E+03  1.1759E+03 -6.8407E+03  6.6090E+02 -7.7020E+03  0.0000E+00  0.0000E+00  0.0000E+00  0.0000E+00
  75.000f -6.7411E+03  0.0000E+00  2.8394E+02 -7.8198E+03  7.7029E+03  0.0000E+00  0.0000E+00  0.0000E+00  0.0000E+00
   1.784s  1.8212E+04  2.6554E+01  2.0039E+02  4.0078E+02  9.0000E+01  9.0000E+01  9.0000E+01  0.0000E+00 -1.4695E+00

  rolling -6.7218E+03  1.2008E+03 -6.8408E+03  6.5640E+02 -7.7012E+03  0.0000E+00  0.0000E+00  0.0000E+00  0.0000E+00
 averages -6.7541E+03  0.0000E+00  3.3503E+02 -7.7750E+03  7.7020E+03  0.0000E+00  0.0000E+00  0.0000E+00  0.0000E+00
           1.8244E+04  2.1890E+01  2.0401E+02  4.0802E+02  9.0000E+01  9.0000E+01  9.0000E+01  0.0000E+00 -2.8010E+00
 ------------------------------------------------------------------------------------------------------------------------
 ------------------------------------------------------------------------------------------------------------------------

     step     eng_tot    temp_tot     eng_cfg     eng_vdw     eng_cou     eng_bnd     eng_ang     eng_dih     eng_tet
 time          eng_pv    temp_rot     vir_cfg     vir_vdw     vir_cou     vir_bnd     vir_ang     vir_con     vir_tet
 cpu time      volume    temp_shl     eng_shl     vir_shl       alpha        beta       gamma     vir_pmf       press

 ------------------------------------------------------------------------------------------------------------------------
      160 -6.7240E+03  1.1784E+03 -6.8408E+03  6.6761E+02 -7.7121E+03  0.0000E+00  0.0000E+00  0.0000E+00  0.0000E+00
  80.000f -6.7284E+03  0.0000E+00  2.4690E+02 -7.8739E+03  7.7134E+03  0.0000E+00  0.0000E+00  0.0000E+00  0.0000E+00
   1.866s  1.8210E+04  2.8591E+01  2.0367E+02  4.0733E+02  9.0000E+01  9.0000E+01  9.0000E+01  0.0000E+00 -3.8331E-01

  rolling -6.7222E+03  1.1995E+03 -6.8412E+03  6.5660E+02 -7.7020E+03  0.0000E+00  0.0000E+00  0.0000E+00  0.0000E+00
 averages -6.7541E+03  0.0000E+00  3.3345E+02 -7.7780E+03  7.7029E+03  0.0000E+00  0.0000E+00  0.0000E+00  0.0000E+00
           1.8238E+04  2.3219E+01  2.0429E+02  4.0859E+02  9.0000E+01  9.0000E+01  9.0000E+01  0.0000E+00 -2.7633E+00
 ------------------------------------------------------------------------------------------------------------------------
      170 -6.7241E+03  1.1895E+03 -6.8421E+03  6.7362E+02 -7.7215E+03  0.0000E+00  0.0000E+00  0.0000E+00  0.0000E+00
  85.000f -6.7158E+03  0.0000E+00  2.1083E+02 -7.9232E+03  7.7223E+03  0.0000E+00  0.0000E+00  0.0000E+00  0.0000E+00
   1.975s  1.8211E+04  3.9814E+01  2.0588E+02  4.1175E+02  9.0000E+01  9.0000E+01  9.0000E+01  0.0000E+00  7.2426E-01

  rolling -6.7228E+03  1.1986E+03 -6.8416E+03  6.5746E+02 -7.7040E+03  0.0000E+00  0.0000E+00  0.0000E+00  0.0000E+00
 averages -6.7528E+03  0.0000E+00  3.2771E+02 -7.7869E+03  7.7048E+03  0.0000E+00  0.0000E+00  0.0000E+00  0.0000E+00
           1.8233E+04  2.5312E+01  2.0486E+02  4.0973E+02  9.0000E+01  9.0000E+01  9.0000E+01  0.0000E+00 -2.6024E+00
 ------------------------------------------------------------------------------------------------------------------------
      180 -6.7241E+03  1.1877E+03 -6.8419E+03  6.7492E+02 -7.7199E+03  0.0000E+00  0.0000E+00  0.0000E+00  0.0000E+00
  90.000f -6.7089E+03  0.0000E+00  1.8995E+02 -7.9371E+03  7.7208E+03  0.0000E+00  0.0000E+00  0.0000E+00  0.0000E+00
   2.063s  1.8213E+04  3.0894E+01  2.0311E+02  4.0622E+02  9.0000E+01  9.0000E+01  9.0000E+01  0.0000E+00  1.3181E+00

  rolling -6.7234E+03  1.1976E+03 -6.8421E+03  6.5885E+02 -7.7063E+03  0.0000E+00  0.0000E+00  0.0000E+00  0.0000E+00
 averages -6.7501E+03  0.0000E+00  3.1744E+02 -7.8003E+03  7.7072E+03  0.0000E+00  0.0000E+00  0.0000E+00  0.0000E+00
           1.8228E+04  2.7561E+01  2.0528E+02  4.1057E+02  9.0000E+01  9.0000E+01  9.0000E+01  0.0000E+00 -2.3114E+00
 ------------------------------------------------------------------------------------------------------------------------
      190 -6.7239E+03  1.1846E+03 -6.8414E+03  6.7673E+02 -7.7169E+03  0.0000E+00  0.0000E+00  0.0000E+00  0.0000E+00
  95.000f -6.7000E+03  0.0000E+00  1.6311E+02 -7.9524E+03  7.7179E+03  0.0000E+00  0.0000E+00  0.0000E+00  0.0000E+00
   2.154s  1.8217E+04  2.9021E+01  1.9881E+02  3.9762E+02  9.0000E+01  9.0000E+01  9.0000E+01  0.0000E+00  2.0769E+00

  rolling -6.7239E+03  1.1956E+03 -6.8424E+03  6.6076E+02 -7.7084E+03  0.0000E+00  0.0000E+00  0.0000E+00  0.0000E+00
 averages -6.7455E+03  0.0000E+00  3.0188E+02 -7.8178E+03  7.7093E+03  0.0000E+00  0.0000E+00  0.0000E+00  0.0000E+00
           1.8223E+04  2.9022E+01  2.0521E+02  4.1041E+02  9.0000E+01  9.0000E+01  9.0000E+01  0.0000E+00 -1.8730E+00
 ------------------------------------------------------------------------------------------------------------------------
      200 -6.7236E+03  1.1740E+03 -6.8400E+03  6.8108E+02 -7.7174E+03  0.0000E+00  0.0000E+00  0.0000E+00  0.0000E+00
 100.000f -6.6880E+03  0.0000E+00  1.2603E+02 -7.9847E+03  7.7182E+03  0.0000E+00  0.0000E+00  0.0000E+00  0.0000E+00
   2.236s  1.8222E+04  2.9531E+01  1.9627E+02  3.9254E+02  9.0000E+01  9.0000E+01  9.0000E+01  0.0000E+00  3.0880E+00

  rolling -6.7241E+03  1.1928E+03 -6.8424E+03  6.6345E+02 -7.7105E+03  0.0000E+00  0.0000E+00  0.0000E+00  0.0000E+00
 averages -6.7385E+03  0.0000E+00  2.7969E+02 -7.8410E+03  7.7114E+03  0.0000E+00  0.0000E+00  0.0000E+00  0.0000E+00
           1.8220E+04  3.0547E+01  2.0466E+02  4.0932E+02  9.0000E+01  9.0000E+01  9.0000E+01  0.0000E+00 -1.2482E+00
 ------------------------------------------------------------------------------------------------------------------------
      210 -6.7238E+03  1.1648E+03 -6.8392E+03  6.8458E+02 -7.7187E+03  0.0000E+00  0.0000E+00  0.0000E+00  0.0000E+00
 105.000f -6.6794E+03  0.0000E+00  9.8021E+01 -8.0112E+03  7.7194E+03  0.0000E+00  0.0000E+00  0.0000E+00  0.0000E+00
   2.339s  1.8229E+04  3.3510E+01  1.9490E+02  3.8980E+02  9.0000E+01  9.0000E+01  9.0000E+01  0.0000E+00  3.8437E+00

  rolling -6.7241E+03  1.1890E+03 -6.8420E+03  6.6683E+02 -7.7126E+03  0.0000E+00  0.0000E+00  0.0000E+00  0.0000E+00
 averages -6.7296E+03  0.0000E+00  2.5214E+02 -7.8689E+03  7.7135E+03  0.0000E+00  0.0000E+00  0.0000E+00  0.0000E+00
           1.8219E+04  3.2339E+01  2.0380E+02  4.0760E+02  9.0000E+01  9.0000E+01  9.0000E+01  0.0000E+00 -4.7324E-01
 ------------------------------------------------------------------------------------------------------------------------
      220 -6.7235E+03  1.1590E+03 -6.8384E+03  6.8742E+02 -7.7204E+03  0.0000E+00  0.0000E+00  0.0000E+00  0.0000E+00
 110.000f -6.6725E+03  0.0000E+00  7.6855E+01 -8.0333E+03  7.7211E+03  0.0000E+00  0.0000E+00  0.0000E+00  0.0000E+00
   2.422s  1.8238E+04  3.2788E+01  1.9452E+02  3.8905E+02  9.0000E+01  9.0000E+01  9.0000E+01  0.0000E+00  4.4206E+00

  rolling -6.7241E+03  1.1828E+03 -6.8413E+03  6.7047E+02 -7.7143E+03  0.0000E+00  0.0000E+00  0.0000E+00  0.0000E+00
 averages -6.7198E+03  0.0000E+00  2.2180E+02 -7.8984E+03  7.7151E+03  0.0000E+00  0.0000E+00  0.0000E+00  0.0000E+00
           1.8219E+04  3.0557E+01  2.0252E+02  4.0504E+02  9.0000E+01  9.0000E+01  9.0000E+01  0.0000E+00  3.6789E-01
 ------------------------------------------------------------------------------------------------------------------------
      230 -6.7232E+03  1.1597E+03 -6.8382E+03  6.9018E+02 -7.7230E+03  0.0000E+00  0.0000E+00  0.0000E+00  0.0000E+00
 115.000f -6.6660E+03  0.0000E+00  5.8170E+01 -8.0538E+03  7.7228E+03  0.0000E+00  0.0000E+00  0.0000E+00  0.0000E+00
   2.511s  1.8248E+04  3.1816E+01  1.9460E+02  3.8919E+02  9.0000E+01  9.0000E+01  9.0000E+01  0.0000E+00  4.9622E+00

  rolling -6.7240E+03  1.1779E+03 -6.8407E+03  6.7402E+02 -7.7154E+03  0.0000E+00  0.0000E+00  0.0000E+00  0.0000E+00
 averages -6.7097E+03  0.0000E+00  1.9069E+02 -7.9267E+03  7.7161E+03  0.0000E+00  0.0000E+00  0.0000E+00  0.0000E+00
           1.8220E+04  3.0893E+01  2.0062E+02  4.0124E+02  9.0000E+01  9.0000E+01  9.0000E+01  0.0000E+00  1.2392E+00
 ------------------------------------------------------------------------------------------------------------------------
 ------------------------------------------------------------------------------------------------------------------------

     step     eng_tot    temp_tot     eng_cfg     eng_vdw     eng_cou     eng_bnd     eng_ang     eng_dih     eng_tet
 time          eng_pv    temp_rot     vir_cfg     vir_vdw     vir_cou     vir_bnd     vir_ang     vir_con     vir_tet
 cpu time      volume    temp_shl     eng_shl     vir_shl       alpha        beta       gamma     vir_pmf       press

 ------------------------------------------------------------------------------------------------------------------------
      240 -6.7231E+03  1.1661E+03 -6.8387E+03  6.8903E+02 -7.7215E+03  0.0000E+00  0.0000E+00  0.0000E+00  0.0000E+00
 120.000f -6.6676E+03  0.0000E+00  6.4762E+01 -8.0448E+03  7.7221E+03  0.0000E+00  0.0000E+00  0.0000E+00  0.0000E+00
   2.613s  1.8258E+04  2.8116E+01  1.9374E+02  3.8748E+02  9.0000E+01  9.0000E+01  9.0000E+01  0.0000E+00  4.8053E+00

  rolling -6.7238E+03  1.1747E+03 -6.8403E+03  6.7728E+02 -7.7166E+03  0.0000E+00  0.0000E+00  0.0000E+00  0.0000E+00
 averages -6.7004E+03  0.0000E+00  1.6275E+02 -7.9527E+03  7.7174E+03  0.0000E+00  0.0000E+00  0.0000E+00  0.0000E+00
           1.8224E+04  3.1095E+01  1.9906E+02  3.9812E+02  9.0000E+01  9.0000E+01  9.0000E+01  0.0000E+00  2.0282E+00
 ------------------------------------------------------------------------------------------------------------------------
      250 -6.7229E+03  1.1805E+03 -6.8399E+03  6.8336E+02 -7.7156E+03  0.0000E+00  0.0000E+00  0.0000E+00  0.0000E+00
 125.000f -6.6775E+03  0.0000E+00  9.7908E+01 -8.0028E+03  7.7161E+03  0.0000E+00  0.0000E+00  0.0000E+00  0.0000E+00
   2.696s  1.8267E+04  3.0266E+01  1.9231E+02  3.8462E+02  9.0000E+01  9.0000E+01  9.0000E+01  0.0000E+00  3.9289E+00

  rolling -6.7237E+03  1.1741E+03 -6.8401E+03  6.7993E+02 -7.7182E+03  0.0000E+00  0.0000E+00  0.0000E+00  0.0000E+00
 averages -6.6931E+03  0.0000E+00  1.4107E+02 -7.9741E+03  7.7189E+03  0.0000E+00  0.0000E+00  0.0000E+00  0.0000E+00
           1.8229E+04  3.1262E+01  1.9815E+02  3.9630E+02  9.0000E+01  9.0000E+01  9.0000E+01  0.0000E+00  2.6510E+00
 ------------------------------------------------------------------------------------------------------------------------
      260 -6.7226E+03  1.1907E+03 -6.8407E+03  6.7892E+02 -7.7128E+03  0.0000E+00  0.0000E+00  0.0000E+00  0.0000E+00
 130.000f -6.6875E+03  0.0000E+00  1.3061E+02 -7.9691E+03  7.7132E+03  0.0000E+00  0.0000E+00  0.0000E+00  0.0000E+00
   2.778s  1.8274E+04  3.4771E+01  1.9323E+02  3.8646E+02  9.0000E+01  9.0000E+01  9.0000E+01  0.0000E+00  3.0427E+00

  rolling -6.7236E+03  1.1751E+03 -6.8401E+03  6.8157E+02 -7.7188E+03  0.0000E+00  0.0000E+00  0.0000E+00  0.0000E+00
 averages -6.6880E+03  0.0000E+00  1.2630E+02 -7.9877E+03  7.7195E+03  0.0000E+00  0.0000E+00  0.0000E+00  0.0000E+00
           1.8235E+04  3.1776E+01  1.9723E+02  3.9445E+02  9.0000E+01  9.0000E+01  9.0000E+01  0.0000E+00  3.0830E+00
 ------------------------------------------------------------------------------------------------------------------------
      270 -6.7224E+03  1.1950E+03 -6.8409E+03  6.7606E+02 -7.7132E+03  0.0000E+00  0.0000E+00  0.0000E+00  0.0000E+00
 135.000f -6.6965E+03  0.0000E+00  1.5929E+02 -7.9465E+03  7.7132E+03  0.0000E+00  0.0000E+00  0.0000E+00  0.0000E+00
   2.860s  1.8279E+04  3.5574E+01  1.9631E+02  3.9261E+02  9.0000E+01  9.0000E+01  9.0000E+01  0.0000E+00  2.2392E+00

  rolling -6.7234E+03  1.1760E+03 -6.8400E+03  6.8217E+02 -7.7184E+03  0.0000E+00  0.0000E+00  0.0000E+00  0.0000E+00
 averages -6.6851E+03  0.0000E+00  1.1837E+02 -7.9930E+03  7.7190E+03  0.0000E+00  0.0000E+00  0.0000E+00  0.0000E+00
           1.8241E+04  3.1895E+01  1.9618E+02  3.9235E+02  9.0000E+01  9.0000E+01  9.0000E+01  0.0000E+00  3.3169E+00
 ------------------------------------------------------------------------------------------------------------------------
      280 -6.7228E+03  1.1985E+03 -6.8416E+03  6.7225E+02 -7.7121E+03  0.0000E+00  0.0000E+00  0.0000E+00  0.0000E+00
 140.000f -6.7078E+03  0.0000E+00  1.9281E+02 -7.9162E+03  7.7126E+03  0.0000E+00  0.0000E+00  0.0000E+00  0.0000E+00
   2.963s  1.8283E+04  3.3981E+01  1.9822E+02  3.9644E+02  9.0000E+01  9.0000E+01  9.0000E+01  0.0000E+00  1.2928E+00

  rolling -6.7233E+03  1.1767E+03 -6.8399E+03  6.8212E+02 -7.7175E+03  0.0000E+00  0.0000E+00  0.0000E+00  0.0000E+00
 averages -6.6843E+03  0.0000E+00  1.1630E+02 -7.9927E+03  7.7181E+03  0.0000E+00  0.0000E+00  0.0000E+00  0.0000E+00
           1.8248E+04  3.1696E+01  1.9547E+02  3.9094E+02  9.0000E+01  9.0000E+01  9.0000E+01  0.0000E+00  3.3802E+00
 ------------------------------------------------------------------------------------------------------------------------
      290 -6.7228E+03  1.2015E+03 -6.8419E+03  6.6814E+02 -7.7084E+03  0.0000E+00  0.0000E+00  0.0000E+00  0.0000E+00
 145.000f -6.7174E+03  0.0000E+00  2.2225E+02 -7.8834E+03  7.7090E+03  0.0000E+00  0.0000E+00  0.0000E+00  0.0000E+00
   3.068s  1.8284E+04  3.1792E+01  1.9836E+02  3.9672E+02  9.0000E+01  9.0000E+01  9.0000E+01  0.0000E+00  4.6102E-01

  rolling -6.7231E+03  1.1782E+03 -6.8399E+03  6.8155E+02 -7.7167E+03  0.0000E+00  0.0000E+00  0.0000E+00  0.0000E+00
 averages -6.6851E+03  0.0000E+00  1.1960E+02 -7.9881E+03  7.7173E+03  0.0000E+00  0.0000E+00  0.0000E+00  0.0000E+00
           1.8255E+04  3.2123E+01  1.9523E+02  3.9047E+02  9.0000E+01  9.0000E+01  9.0000E+01  0.0000E+00  3.2927E+00
 ------------------------------------------------------------------------------------------------------------------------
      300 -6.7228E+03  1.2058E+03 -6.8423E+03  6.6526E+02 -7.7070E+03  0.0000E+00  0.0000E+00  0.0000E+00  0.0000E+00
 150.000f -6.7249E+03  0.0000E+00  2.4535E+02 -7.8613E+03  7.7078E+03  0.0000E+00  0.0000E+00  0.0000E+00  0.0000E+00
   3.164s  1.8284E+04  3.4631E+01  1.9941E+02  3.9881E+02  9.0000E+01  9.0000E+01  9.0000E+01  0.0000E+00 -1.8054E-01

  rolling -6.7230E+03  1.1806E+03 -6.8401E+03  6.8029E+02 -7.7157E+03  0.0000E+00  0.0000E+00  0.0000E+00  0.0000E+00
 averages -6.6880E+03  0.0000E+00  1.2889E+02 -7.9782E+03  7.7163E+03  0.0000E+00  0.0000E+00  0.0000E+00  0.0000E+00
           1.8262E+04  3.2483E+01  1.9539E+02  3.9077E+02  9.0000E+01  9.0000E+01  9.0000E+01  0.0000E+00  3.0380E+00
 ------------------------------------------------------------------------------------------------------------------------
      310 -6.7227E+03  1.2028E+03 -6.8419E+03  6.6434E+02 -7.7087E+03  0.0000E+00  0.0000E+00  0.0000E+00  0.0000E+00
 155.000f -6.7299E+03  0.0000E+00  2.6005E+02 -7.8543E+03  7.7096E+03  0.0000E+00  0.0000E+00  0.0000E+00  0.0000E+00
   3.246s  1.8283E+04  3.4106E+01  2.0242E+02  4.0484E+02  9.0000E+01  9.0000E+01  9.0000E+01  0.0000E+00 -6.2137E-01

  rolling -6.7229E+03  1.1843E+03 -6.8403E+03  6.7843E+02 -7.7147E+03  0.0000E+00  0.0000E+00  0.0000E+00  0.0000E+00
 averages -6.6924E+03  0.0000E+00  1.4337E+02 -7.9638E+03  7.7153E+03  0.0000E+00  0.0000E+00  0.0000E+00  0.0000E+00
           1.8267E+04  3.2785E+01  1.9594E+02  3.9188E+02  9.0000E+01  9.0000E+01  9.0000E+01  0.0000E+00  2.6401E+00
 ------------------------------------------------------------------------------------------------------------------------
 ------------------------------------------------------------------------------------------------------------------------

     step     eng_tot    temp_tot     eng_cfg     eng_vdw     eng_cou     eng_bnd     eng_ang     eng_dih     eng_tet
 time          eng_pv    temp_rot     vir_cfg     vir_vdw     vir_cou     vir_bnd     vir_ang     vir_con     vir_tet
 cpu time      volume    temp_shl     eng_shl     vir_shl       alpha        beta       gamma     vir_pmf       press

 ------------------------------------------------------------------------------------------------------------------------
      320 -6.7226E+03  1.1929E+03 -6.8409E+03  6.6478E+02 -7.7098E+03  0.0000E+00  0.0000E+00  0.0000E+00  0.0000E+00
 160.000f -6.7315E+03  0.0000E+00  2.6323E+02 -7.8559E+03  7.7109E+03  0.0000E+00  0.0000E+00  0.0000E+00  0.0000E+00
   3.329s  1.8282E+04  3.4209E+01  2.0409E+02  4.0818E+02  9.0000E+01  9.0000E+01  9.0000E+01  0.0000E+00 -7.6936E-01

  rolling -6.7228E+03  1.1879E+03 -6.8406E+03  6.7627E+02 -7.7137E+03  0.0000E+00  0.0000E+00  0.0000E+00  0.0000E+00
 averages -6.6980E+03  0.0000E+00  1.6102E+02 -7.9470E+03  7.7143E+03  0.0000E+00  0.0000E+00  0.0000E+00  0.0000E+00
           1.8272E+04  3.2858E+01  1.9684E+02  3.9368E+02  9.0000E+01  9.0000E+01  9.0000E+01  0.0000E+00  2.1512E+00
 ------------------------------------------------------------------------------------------------------------------------
      330 -6.7228E+03  1.1843E+03 -6.8402E+03  6.6480E+02 -7.7080E+03  0.0000E+00  0.0000E+00  0.0000E+00  0.0000E+00
 165.000f -6.7316E+03  0.0000E+00  2.6131E+02 -7.8535E+03  7.7088E+03  0.0000E+00  0.0000E+00  0.0000E+00  0.0000E+00
   3.422s  1.8280E+04  3.4534E+01  2.0300E+02  4.0600E+02  9.0000E+01  9.0000E+01  9.0000E+01  0.0000E+00 -7.6340E-01

  rolling -6.7228E+03  1.1908E+03 -6.8408E+03  6.7385E+02 -7.7124E+03  0.0000E+00  0.0000E+00  0.0000E+00  0.0000E+00
 averages -6.7043E+03  0.0000E+00  1.8065E+02 -7.9279E+03  7.7131E+03  0.0000E+00  0.0000E+00  0.0000E+00  0.0000E+00
           1.8276E+04  3.3038E+01  1.9774E+02  3.9549E+02  9.0000E+01  9.0000E+01  9.0000E+01  0.0000E+00  1.6006E+00
 ------------------------------------------------------------------------------------------------------------------------
      340 -6.7227E+03  1.1842E+03 -6.8401E+03  6.6511E+02 -7.7076E+03  0.0000E+00  0.0000E+00  0.0000E+00  0.0000E+00
 170.000f -6.7308E+03  0.0000E+00  2.5899E+02 -7.8544E+03  7.7086E+03  0.0000E+00  0.0000E+00  0.0000E+00  0.0000E+00
   3.513s  1.8279E+04  3.4014E+01  2.0236E+02  4.0471E+02  9.0000E+01  9.0000E+01  9.0000E+01  0.0000E+00 -6.9726E-01

  rolling -6.7228E+03  1.1929E+03 -6.8410E+03  6.7133E+02 -7.7109E+03  0.0000E+00  0.0000E+00  0.0000E+00  0.0000E+00
 averages -6.7108E+03  0.0000E+00  2.0073E+02 -7.9080E+03  7.7116E+03  0.0000E+00  0.0000E+00  0.0000E+00  0.0000E+00
           1.8279E+04  3.3527E+01  1.9856E+02  3.9713E+02  9.0000E+01  9.0000E+01  9.0000E+01  0.0000E+00  1.0329E+00
 ------------------------------------------------------------------------------------------------------------------------
      350 -6.7225E+03  1.1913E+03 -6.8406E+03  6.6709E+02 -7.7115E+03  0.0000E+00  0.0000E+00  0.0000E+00  0.0000E+00
 175.000f -6.7278E+03  0.0000E+00  2.5210E+02 -7.8682E+03  7.7127E+03  0.0000E+00  0.0000E+00  0.0000E+00  0.0000E+00
   3.601s  1.8278E+04  3.5463E+01  2.0378E+02  4.0756E+02  9.0000E+01  9.0000E+01  9.0000E+01  0.0000E+00 -4.5794E-01

  rolling -6.7227E+03  1.1943E+03 -6.8411E+03  6.6934E+02 -7.7100E+03  0.0000E+00  0.0000E+00  0.0000E+00  0.0000E+00
 averages -6.7165E+03  0.0000E+00  2.1808E+02 -7.8918E+03  7.7108E+03  0.0000E+00  0.0000E+00  0.0000E+00  0.0000E+00
           1.8280E+04  3.4074E+01  1.9958E+02  3.9916E+02  9.0000E+01  9.0000E+01  9.0000E+01  0.0000E+00  5.4000E-01
 ------------------------------------------------------------------------------------------------------------------------
      360 -6.7223E+03  1.1983E+03 -6.8411E+03  6.6928E+02 -7.7151E+03  0.0000E+00  0.0000E+00  0.0000E+00  0.0000E+00
 180.000f -6.7239E+03  0.0000E+00  2.4248E+02 -7.8831E+03  7.7161E+03  0.0000E+00  0.0000E+00  0.0000E+00  0.0000E+00
   3.683s  1.8277E+04  3.6715E+01  2.0474E+02  4.0948E+02  9.0000E+01  9.0000E+01  9.0000E+01  0.0000E+00 -1.4039E-01

  rolling -6.7227E+03  1.1952E+03 -6.8412E+03  6.6811E+02 -7.7101E+03  0.0000E+00  0.0000E+00  0.0000E+00  0.0000E+00
 averages -6.7207E+03  0.0000E+00  2.3113E+02 -7.8813E+03  7.7109E+03  0.0000E+00  0.0000E+00  0.0000E+00  0.0000E+00
           1.8281E+04  3.4468E+01  2.0077E+02  4.0154E+02  9.0000E+01  9.0000E+01  9.0000E+01  0.0000E+00  1.6879E-01
 ------------------------------------------------------------------------------------------------------------------------
      370 -6.7227E+03  1.1973E+03 -6.8414E+03  6.7077E+02 -7.7154E+03  0.0000E+00  0.0000E+00  0.0000E+00  0.0000E+00
 185.000f -6.7206E+03  0.0000E+00  2.3113E+02 -7.8916E+03  7.7163E+03  0.0000E+00  0.0000E+00  0.0000E+00  0.0000E+00
   3.777s  1.8277E+04  3.3474E+01  2.0323E+02  4.0647E+02  9.0000E+01  9.0000E+01  9.0000E+01  0.0000E+00  1.8074E-01

  rolling -6.7227E+03  1.1957E+03 -6.8412E+03  6.6738E+02 -7.7103E+03  0.0000E+00  0.0000E+00  0.0000E+00  0.0000E+00
 averages -6.7237E+03  0.0000E+00  2.4012E+02 -7.8744E+03  7.7111E+03  0.0000E+00  0.0000E+00  0.0000E+00  0.0000E+00
           1.8281E+04  3.4389E+01  2.0170E+02  4.0339E+02  9.0000E+01  9.0000E+01  9.0000E+01  0.0000E+00 -8.7721E-02
 ------------------------------------------------------------------------------------------------------------------------
      380 -6.7226E+03  1.1931E+03 -6.8409E+03  6.7195E+02 -7.7140E+03  0.0000E+00  0.0000E+00  0.0000E+00  0.0000E+00
 190.000f -6.7171E+03  0.0000E+00  2.1989E+02 -7.8974E+03  7.7150E+03  0.0000E+00  0.0000E+00  0.0000E+00  0.0000E+00
   3.868s  1.8278E+04  3.4366E+01  2.0117E+02  4.0235E+02  9.0000E+01  9.0000E+01  9.0000E+01  0.0000E+00  4.8110E-01

  rolling -6.7227E+03  1.1955E+03 -6.8412E+03  6.6712E+02 -7.7105E+03  0.0000E+00  0.0000E+00  0.0000E+00  0.0000E+00
 averages -6.7253E+03  0.0000E+00  2.4486E+02 -7.8708E+03  7.7114E+03  0.0000E+00  0.0000E+00  0.0000E+00  0.0000E+00
           1.8281E+04  3.4276E+01  2.0214E+02  4.0427E+02  9.0000E+01  9.0000E+01  9.0000E+01  0.0000E+00 -2.2524E-01
 ------------------------------------------------------------------------------------------------------------------------
      390 -6.7225E+03  1.1895E+03 -6.8404E+03  6.7386E+02 -7.7163E+03  0.0000E+00  0.0000E+00  0.0000E+00  0.0000E+00
 195.000f -6.7143E+03  0.0000E+00  2.1107E+02 -7.9102E+03  7.7174E+03  0.0000E+00  0.0000E+00  0.0000E+00  0.0000E+00
   3.950s  1.8279E+04  3.5326E+01  2.0196E+02  4.0393E+02  9.0000E+01  9.0000E+01  9.0000E+01  0.0000E+00  7.1486E-01

  rolling -6.7227E+03  1.1945E+03 -6.8411E+03  6.6742E+02 -7.7109E+03  0.0000E+00  0.0000E+00  0.0000E+00  0.0000E+00
 averages -6.7255E+03  0.0000E+00  2.4538E+02 -7.8714E+03  7.7119E+03  0.0000E+00  0.0000E+00  0.0000E+00  0.0000E+00
           1.8280E+04  3.4518E+01  2.0244E+02  4.0487E+02  9.0000E+01  9.0000E+01  9.0000E+01  0.0000E+00 -2.4563E-01
 ------------------------------------------------------------------------------------------------------------------------
 ------------------------------------------------------------------------------------------------------------------------

     step     eng_tot    temp_tot     eng_cfg     eng_vdw     eng_cou     eng_bnd     eng_ang     eng_dih     eng_tet
 time          eng_pv    temp_rot     vir_cfg     vir_vdw     vir_cou     vir_bnd     vir_ang     vir_con     vir_tet
 cpu time      volume    temp_shl     eng_shl     vir_shl       alpha        beta       gamma     vir_pmf       press

 ------------------------------------------------------------------------------------------------------------------------
      400 -6.7224E+03  1.1909E+03 -6.8405E+03  6.7596E+02 -7.7208E+03  0.0000E+00  0.0000E+00  0.0000E+00  0.0000E+00
 200.000f -6.7119E+03  0.0000E+00  2.0468E+02 -7.9261E+03  7.7220E+03  0.0000E+00  0.0000E+00  0.0000E+00  0.0000E+00
   4.032s  1.8281E+04  3.7558E+01  2.0439E+02  4.0877E+02  9.0000E+01  9.0000E+01  9.0000E+01  0.0000E+00  9.0721E-01

  rolling -6.7226E+03  1.1931E+03 -6.8409E+03  6.6829E+02 -7.7121E+03  0.0000E+00  0.0000E+00  0.0000E+00  0.0000E+00
 averages -6.7246E+03  0.0000E+00  2.4255E+02 -7.8763E+03  7.7131E+03  0.0000E+00  0.0000E+00  0.0000E+00  0.0000E+00
           1.8280E+04  3.4856E+01  2.0289E+02  4.0579E+02  9.0000E+01  9.0000E+01  9.0000E+01  0.0000E+00 -1.7211E-01
 ------------------------------------------------------------------------------------------------------------------------
      410 -6.7224E+03  1.1917E+03 -6.8406E+03  6.7640E+02 -7.7219E+03  0.0000E+00  0.0000E+00  0.0000E+00  0.0000E+00
 205.000f -6.7115E+03  0.0000E+00  2.0354E+02 -7.9297E+03  7.7233E+03  0.0000E+00  0.0000E+00  0.0000E+00  0.0000E+00
   4.152s  1.8283E+04  3.6082E+01  2.0497E+02  4.0994E+02  9.0000E+01  9.0000E+01  9.0000E+01  0.0000E+00  9.4468E-01

  rolling -6.7226E+03  1.1918E+03 -6.8408E+03  6.6946E+02 -7.7135E+03  0.0000E+00  0.0000E+00  0.0000E+00  0.0000E+00
 averages -6.7230E+03  0.0000E+00  2.3747E+02 -7.8837E+03  7.7146E+03  0.0000E+00  0.0000E+00  0.0000E+00  0.0000E+00
           1.8279E+04  3.5083E+01  2.0329E+02  4.0657E+02  9.0000E+01  9.0000E+01  9.0000E+01  0.0000E+00 -3.3309E-02
 ------------------------------------------------------------------------------------------------------------------------
      420 -6.7224E+03  1.1888E+03 -6.8403E+03  6.7563E+02 -7.7193E+03  0.0000E+00  0.0000E+00  0.0000E+00  0.0000E+00
 210.000f -6.7119E+03  0.0000E+00  2.0422E+02 -7.9232E+03  7.7206E+03  0.0000E+00  0.0000E+00  0.0000E+00  0.0000E+00
   4.246s  1.8285E+04  3.7434E+01  2.0342E+02  4.0684E+02  9.0000E+01  9.0000E+01  9.0000E+01  0.0000E+00  9.0788E-01

  rolling -6.7226E+03  1.1911E+03 -6.8407E+03  6.7061E+02 -7.7146E+03  0.0000E+00  0.0000E+00  0.0000E+00  0.0000E+00
 averages -6.7210E+03  0.0000E+00  2.3156E+02 -7.8908E+03  7.7157E+03  0.0000E+00  0.0000E+00  0.0000E+00  0.0000E+00
           1.8280E+04  3.5348E+01  2.0335E+02  4.0669E+02  9.0000E+01  9.0000E+01  9.0000E+01  0.0000E+00  1.3293E-01
 ------------------------------------------------------------------------------------------------------------------------
      430 -6.7223E+03  1.1815E+03 -6.8395E+03  6.7518E+02 -7.7175E+03  0.0000E+00  0.0000E+00  0.0000E+00  0.0000E+00
 215.000f -6.7127E+03  0.0000E+00  2.0535E+02 -7.9191E+03  7.7187E+03  0.0000E+00  0.0000E+00  0.0000E+00  0.0000E+00
   4.336s  1.8287E+04  3.7109E+01  2.0287E+02  4.0574E+02  9.0000E+01  9.0000E+01  9.0000E+01  0.0000E+00  8.3370E-01

  rolling -6.7225E+03  1.1908E+03 -6.8406E+03  6.7166E+02 -7.7155E+03  0.0000E+00  0.0000E+00  0.0000E+00  0.0000E+00
 averages -6.7191E+03  0.0000E+00  2.2579E+02 -7.8974E+03  7.7166E+03  0.0000E+00  0.0000E+00  0.0000E+00  0.0000E+00
           1.8280E+04  3.5631E+01  2.0328E+02  4.0655E+02  9.0000E+01  9.0000E+01  9.0000E+01  0.0000E+00  2.9757E-01
 ------------------------------------------------------------------------------------------------------------------------
      440 -6.7222E+03  1.1832E+03 -6.8395E+03  6.7375E+02 -7.7172E+03  0.0000E+00  0.0000E+00  0.0000E+00  0.0000E+00
 220.000f -6.7161E+03  0.0000E+00  2.1647E+02 -7.9101E+03  7.7186E+03  0.0000E+00  0.0000E+00  0.0000E+00  0.0000E+00
   4.419s  1.8288E+04  3.7833E+01  2.0398E+02  4.0795E+02  9.0000E+01  9.0000E+01  9.0000E+01  0.0000E+00  5.2323E-01

  rolling -6.7225E+03  1.1906E+03 -6.8405E+03  6.7263E+02 -7.7165E+03  0.0000E+00  0.0000E+00  0.0000E+00  0.0000E+00
 averages -6.7174E+03  0.0000E+00  2.2080E+02 -7.9036E+03  7.7176E+03  0.0000E+00  0.0000E+00  0.0000E+00  0.0000E+00
           1.8281E+04  3.5978E+01  2.0337E+02  4.0674E+02  9.0000E+01  9.0000E+01  9.0000E+01  0.0000E+00  4.4056E-01
 ------------------------------------------------------------------------------------------------------------------------
      450 -6.7221E+03  1.1890E+03 -6.8399E+03  6.7215E+02 -7.7168E+03  0.0000E+00  0.0000E+00  0.0000E+00  0.0000E+00
 225.000f -6.7194E+03  0.0000E+00  2.2788E+02 -7.9000E+03  7.7185E+03  0.0000E+00  0.0000E+00  0.0000E+00  0.0000E+00
   4.501s  1.8289E+04  3.5954E+01  2.0470E+02  4.0940E+02  9.0000E+01  9.0000E+01  9.0000E+01  0.0000E+00  2.2746E-01

  rolling -6.7224E+03  1.1905E+03 -6.8404E+03  6.7330E+02 -7.7173E+03  0.0000E+00  0.0000E+00  0.0000E+00  0.0000E+00
 averages -6.7163E+03  0.0000E+00  2.1761E+02 -7.9078E+03  7.7184E+03  0.0000E+00  0.0000E+00  0.0000E+00  0.0000E+00
           1.8282E+04  3.6165E+01  2.0352E+02  4.0704E+02  9.0000E+01  9.0000E+01  9.0000E+01  0.0000E+00  5.3167E-01
 ------------------------------------------------------------------------------------------------------------------------
      460 -6.7221E+03  1.1934E+03 -6.8404E+03  6.7191E+02 -7.7162E+03  0.0000E+00  0.0000E+00  0.0000E+00  0.0000E+00
 230.000f -6.7187E+03  0.0000E+00  2.2634E+02 -7.8989E+03  7.7175E+03  0.0000E+00  0.0000E+00  0.0000E+00  0.0000E+00
   4.609s  1.8289E+04  4.1401E+01  2.0388E+02  4.0775E+02  9.0000E+01  9.0000E+01  9.0000E+01  0.0000E+00  2.9655E-01

  rolling -6.7224E+03  1.1901E+03 -6.8404E+03  6.7365E+02 -7.7175E+03  0.0000E+00  0.0000E+00  0.0000E+00  0.0000E+00
 averages -6.7156E+03  0.0000E+00  2.1569E+02 -7.9100E+03  7.7187E+03  0.0000E+00  0.0000E+00  0.0000E+00  0.0000E+00
           1.8283E+04  3.6403E+01  2.0350E+02  4.0700E+02  9.0000E+01  9.0000E+01  9.0000E+01  0.0000E+00  5.8506E-01
 ------------------------------------------------------------------------------------------------------------------------
      470 -6.7220E+03  1.1794E+03 -6.8389E+03  6.7288E+02 -7.7154E+03  0.0000E+00  0.0000E+00  0.0000E+00  0.0000E+00
 235.000f -6.7165E+03  0.0000E+00  2.1721E+02 -7.9065E+03  7.7166E+03  0.0000E+00  0.0000E+00  0.0000E+00  0.0000E+00
   4.692s  1.8290E+04  3.9507E+01  2.0354E+02  4.0708E+02  9.0000E+01  9.0000E+01  9.0000E+01  0.0000E+00  4.7993E-01

  rolling -6.7223E+03  1.1890E+03 -6.8402E+03  6.7387E+02 -7.7175E+03  0.0000E+00  0.0000E+00  0.0000E+00  0.0000E+00
 averages -6.7152E+03  0.0000E+00  2.1423E+02 -7.9114E+03  7.7188E+03  0.0000E+00  0.0000E+00  0.0000E+00  0.0000E+00
           1.8284E+04  3.6995E+01  2.0345E+02  4.0690E+02  9.0000E+01  9.0000E+01  9.0000E+01  0.0000E+00  6.2090E-01
 ------------------------------------------------------------------------------------------------------------------------
 ------------------------------------------------------------------------------------------------------------------------

     step     eng_tot    temp_tot     eng_cfg     eng_vdw     eng_cou     eng_bnd     eng_ang     eng_dih     eng_tet
 time          eng_pv    temp_rot     vir_cfg     vir_vdw     vir_cou     vir_bnd     vir_ang     vir_con     vir_tet
 cpu time      volume    temp_shl     eng_shl     vir_shl       alpha        beta       gamma     vir_pmf       press

 ------------------------------------------------------------------------------------------------------------------------
      480 -6.7218E+03  1.1514E+03 -6.8359E+03  6.7439E+02 -7.7137E+03  0.0000E+00  0.0000E+00  0.0000E+00  0.0000E+00
 240.000f -6.7139E+03  0.0000E+00  2.0455E+02 -7.9168E+03  7.7145E+03  0.0000E+00  0.0000E+00  0.0000E+00  0.0000E+00
   4.774s  1.8291E+04  3.7703E+01  2.0341E+02  4.0681E+02  9.0000E+01  9.0000E+01  9.0000E+01  0.0000E+00  6.8450E-01

  rolling -6.7223E+03  1.1860E+03 -6.8398E+03  6.7410E+02 -7.7175E+03  0.0000E+00  0.0000E+00  0.0000E+00  0.0000E+00
 averages -6.7148E+03  0.0000E+00  2.1277E+02 -7.9132E+03  7.7187E+03  0.0000E+00  0.0000E+00  0.0000E+00  0.0000E+00
           1.8285E+04  3.7466E+01  2.0361E+02  4.0721E+02  9.0000E+01  9.0000E+01  9.0000E+01  0.0000E+00  6.4556E-01
 ------------------------------------------------------------------------------------------------------------------------
      490 -6.7215E+03  1.1259E+03 -6.8332E+03  6.7597E+02 -7.7114E+03  0.0000E+00  0.0000E+00  0.0000E+00  0.0000E+00
 245.000f -6.7103E+03  0.0000E+00  1.8963E+02 -7.9271E+03  7.7122E+03  0.0000E+00  0.0000E+00  0.0000E+00  0.0000E+00
   4.856s  1.8293E+04  3.9681E+01  2.0229E+02  4.0458E+02  9.0000E+01  9.0000E+01  9.0000E+01  0.0000E+00  9.6871E-01

  rolling -6.7222E+03  1.1805E+03 -6.8392E+03  6.7434E+02 -7.7173E+03  0.0000E+00  0.0000E+00  0.0000E+00  0.0000E+00
 averages -6.7145E+03  0.0000E+00  2.1095E+02 -7.9150E+03  7.7185E+03  0.0000E+00  0.0000E+00  0.0000E+00  0.0000E+00
           1.8287E+04  3.7806E+01  2.0376E+02  4.0752E+02  9.0000E+01  9.0000E+01  9.0000E+01  0.0000E+00  6.6673E-01
 ------------------------------------------------------------------------------------------------------------------------
      500 -6.7211E+03  1.1184E+03 -6.8320E+03  6.7766E+02 -7.7112E+03  0.0000E+00  0.0000E+00  0.0000E+00  0.0000E+00
 250.000f -6.7057E+03  0.0000E+00  1.7550E+02 -7.9394E+03  7.7119E+03  0.0000E+00  0.0000E+00  0.0000E+00  0.0000E+00
   4.959s  1.8295E+04  4.0371E+01  2.0152E+02  4.0305E+02  9.0000E+01  9.0000E+01  9.0000E+01  0.0000E+00  1.3331E+00

  rolling -6.7221E+03  1.1735E+03 -6.8384E+03  6.7452E+02 -7.7165E+03  0.0000E+00  0.0000E+00  0.0000E+00  0.0000E+00
 averages -6.7139E+03  0.0000E+00  2.0835E+02 -7.9165E+03  7.7176E+03  0.0000E+00  0.0000E+00  0.0000E+00  0.0000E+00
           1.8288E+04  3.8213E+01  2.0360E+02  4.0720E+02  9.0000E+01  9.0000E+01  9.0000E+01  0.0000E+00  7.0156E-01
 ------------------------------------------------------------------------------------------------------------------------


 run terminating. elapsed cpu time =   4.95900E+00, job time =   1.000h, close time =  200.00s



 run terminated after     500 steps. final averages calculated over     400 steps.


 ------------------------------------------------------------------------------------------------------------------------

     step     eng_tot    temp_tot     eng_cfg     eng_vdw     eng_cou     eng_bnd     eng_ang     eng_dih     eng_tet
 time          eng_pv    temp_rot     vir_cfg     vir_vdw     vir_cou     vir_bnd     vir_ang     vir_con     vir_tet
 cpu time      volume    temp_shl     eng_shl     vir_shl       alpha        beta       gamma     vir_pmf       press

 ------------------------------------------------------------------------------------------------------------------------
      500 -6.7230E+03  1.1850E+03 -6.8404E+03  6.7164E+02 -7.7137E+03  0.0000E+00  0.0000E+00  0.0000E+00  0.0000E+00
 250.000f -6.7163E+03  0.0000E+00  2.1487E+02 -7.9030E+03  7.7146E+03  0.0000E+00  0.0000E+00  0.0000E+00  0.0000E+00
   5.016s  1.8262E+04  3.4025E+01  2.0163E+02  4.0327E+02  9.0000E+01  9.0000E+01  9.0000E+01  0.0000E+00  5.7979E-01

  r.m.s.   8.1459E-01  1.8834E+01  2.2598E+00  9.3714E+00  5.8404E+00  0.0000E+00  0.0000E+00  0.0000E+00  0.0000E+00
 fluctn.   2.5385E+01  0.0000E+00  7.7566E+01  7.4756E+01  5.8451E+00  0.0000E+00  0.0000E+00  0.0000E+00  0.0000E+00
           2.8647E+01  5.9972E+00  4.5349E+00  9.0699E+00  2.6430E-14  2.6430E-14  2.6430E-14  0.0000E+00  2.1816E+00
 ------------------------------------------------------------------------------------------------------------------------


            Approximate 3D Diffusion  coefficients (10^-9 m^2 / s)

            atom        D 
            Mg         3.9000E+00
            Cl         5.4309E+00
            Cl-shl     4.9099E+00


                Average pressure tensor                                       r.m.s. fluctuations 

           1.2544E+00 -1.7200E+00  3.1300E-01                          4.3930E+00  1.9932E+00  1.6272E+00
          -1.7200E+00 -1.2600E+00  1.1197E+00                          1.9932E+00  2.0519E+00  7.5450E-01
           3.1300E-01  1.1197E+00  1.7449E+00                          1.6272E+00  7.5450E-01  2.2026E+00

            trace/3.   5.7979E-01


                 Average cell vectors                                         r.m.s. fluctuations 

       26.3341453554        0.0000000000        0.0000000000           1.3775E-02  0.0000E+00  0.0000E+00
        0.0000000000       26.3341453554        0.0000000000           0.0000E+00  1.3775E-02  0.0000E+00
        0.0000000000        0.0000000000       26.3341453554           0.0000E+00  0.0000E+00  1.3775E-02


 sample of final configuration

      i       x(i)        y(i)        z(i)       vx(i)       vy(i)       vz(i)       fx(i)       fy(i)       fz(i)


      1 -1.1091E+01 -1.1642E+01  1.2944E+01  7.6902E+00  2.3421E+00 -1.0554E+01 -7.0223E+03 -4.8077E+02  1.1632E+03
     65  9.7654E+00 -1.2939E+01 -6.7360E+00  5.4341E+00 -8.9825E+00 -2.7935E+00 -2.5639E+03 -5.4715E+03  1.2190E+03
    129  4.0042E+00 -7.3810E+00  6.2046E+00 -8.8064E+00 -3.1366E+00 -8.0771E+00  9.0209E+02 -1.4923E+03 -1.9844E+03
    193 -1.2464E+01  5.6776E+00 -7.8580E+00  6.4744E+00 -7.1137E+00 -5.3988E+00 -2.2028E+03 -1.3001E+03  3.0942E+03
    257  6.8564E-01  8.5597E+00 -1.3053E+01 -7.2951E+00  8.4226E+00 -5.1312E-01 -1.5731E+04  1.4784E+01 -1.7027E+04
    321 -4.8385E+00  1.2890E+01  1.2919E+00  4.4186E+00  8.2648E+00  7.1470E+00 -2.0296E+03  1.7568E+04  1.2493E+04
    385 -2.9654E+00  3.5765E+00  9.3178E-01 -5.6927E+00 -3.5262E+00  8.7647E+00  7.4518E+02  2.9456E+03 -2.4594E+03
    449  1.0785E+01  8.4071E+00 -7.5266E+00 -8.0873E-01 -9.5392E+00 -9.1941E-01  6.0194E+02 -2.0197E+03  1.4532E+03
    513 -1.2327E+01 -3.2003E+00 -1.2211E+01  4.3671E-01  2.0221E+01 -1.8858E+00 -9.7785E+03  3.5626E+03 -3.1544E+03
    577  8.6823E+00  2.8842E+00 -4.5241E+00 -8.3310E+00 -9.8319E-02 -2.0937E+00 -4.6125E+03  3.5932E+03 -1.1942E+03
    641  5.6621E-01  1.1732E+00 -3.4582E+00  5.0394E-01 -7.3134E-01  1.5561E-02  4.1068E+03  9.1498E+03  3.5678E+03
    705 -8.9883E+00  7.1015E+00  1.0244E+01 -7.6931E+00 -3.8241E+00 -2.5824E+00  3.3144E+02 -3.9312E+02 -2.5836E+03
    769 -2.9936E+00 -1.1701E+01  9.2932E+00  1.9883E+00  3.6352E+00 -7.8369E+00  4.3925E+03 -2.3657E+03  3.4655E+02
    833 -1.2068E+01 -4.3985E+00  5.0618E+00 -5.4570E+00 -2.0772E+00 -7.2334E+00  3.5374E+03  2.0085E+03  7.5073E+03
    897  1.0883E+01 -7.3954E+00  7.0545E+00  3.0282E+00  3.5634E+00 -8.7767E+00 -8.0917E+03  4.9489E+02 -1.5627E+03
    961  9.2968E+00 -2.9289E+00  1.0319E+01  2.6220E+00 -9.7568E+00 -2.5726E+00 -7.2854E+03  6.6643E+03  2.9430E+03
   1025  8.0971E+00  7.2116E+00 -9.3376E+00  1.6171E+00  1.0160E-01  5.8596E+00 -4.1010E+03  1.2879E+03  1.0929E+03
   1089  2.3431E+00  1.0999E+01  2.3813E+00  5.9529E+00 -4.7843E+00 -1.8527E+00 -2.9521E+02 -5.7248E+02  1.8192E+03
   1153  1.0005E+01  9.0500E+00  5.9348E+00 -3.5194E+00 -3.2087E+00  7.4650E+00  5.6291E+03  8.8782E+03  1.1499E+03
   1217  5.6601E+00 -4.4783E+00 -3.4033E+00  1.0697E+00 -6.3343E+00  4.2372E-01 -1.5653E+03 -3.6584E+03  6.0681E+03


            RADIAL DISTRIBUTION FUNCTIONS

calculated using         52 configurations

g(r)  :Mg      Mg      

        r      g(r)         n(r)

    2.6143  0.000000E+00  0.000000E+00
    2.7000  0.000000E+00  0.000000E+00
    2.7857  8.974956E-03  1.051683E-03
    2.8714  3.378870E-02  5.258413E-03
    2.9571  1.206070E-01  2.118389E-02
    3.0429  3.718142E-01  7.316707E-02
    3.1286  6.089045E-01  1.631611E-01
    3.2143  9.408959E-01  3.099459E-01
    3.3000  1.229800E+00  5.121695E-01
    3.3857  1.445214E+00  7.623197E-01
    3.4714  1.611695E+00  1.055589E+00
    3.5571  1.651343E+00  1.371094E+00
    3.6429  1.828728E+00  1.737530E+00
    3.7286  1.663312E+00  2.086689E+00
    3.8143  1.583928E+00  2.434645E+00
    3.9000  1.552361E+00  2.791166E+00
    3.9857  1.616593E+00  3.178936E+00
    4.0714  1.608069E+00  3.581430E+00
    4.1571  1.521716E+00  3.978516E+00
    4.2429  1.379605E+00  4.353516E+00
    4.3286  1.223016E+00  4.699519E+00
    4.4143  1.040155E+00  5.005559E+00
    4.5000  9.154115E-01  5.285457E+00
    4.5857  7.901900E-01  5.536358E+00
    4.6714  7.071994E-01  5.769381E+00
    4.7571  7.201972E-01  6.015475E+00
    4.8429  5.875933E-01  6.223558E+00
    4.9286  5.824897E-01  6.437200E+00
    5.0143  5.417718E-01  6.642879E+00
    5.1000  5.550838E-01  6.860877E+00
    5.1857  6.131082E-01  7.109826E+00
    5.2714  6.405983E-01  7.378606E+00
    5.3571  6.885654E-01  7.676983E+00
    5.4429  6.875380E-01  7.984525E+00
    5.5286  7.712092E-01  8.340445E+00
    5.6143  8.122393E-01  8.727013E+00
    5.7000  9.028410E-01  9.169922E+00
    5.7857  9.562487E-01  9.653245E+00
    5.8714  1.033307E+00  1.019111E+01
    5.9571  1.031264E+00  1.074369E+01
    6.0429  1.099223E+00  1.134976E+01
    6.1286  1.148167E+00  1.200090E+01
    6.2143  1.155362E+00  1.267458E+01
    6.3000  1.164250E+00  1.337230E+01
    6.3857  1.194209E+00  1.410757E+01
    6.4714  1.252594E+00  1.489964E+01
    6.5571  1.363081E+00  1.578456E+01
    6.6429  1.289122E+00  1.664348E+01
    6.7286  1.236708E+00  1.748888E+01
    6.8143  1.257863E+00  1.837079E+01
    6.9000  1.195875E+00  1.923047E+01
    6.9857  1.209120E+00  2.012139E+01
    7.0714  1.096014E+00  2.094892E+01
    7.1571  1.118287E+00  2.181385E+01
    7.2429  1.069783E+00  2.266121E+01
    7.3286  1.041942E+00  2.350616E+01
    7.4143  1.004776E+00  2.434014E+01
    7.5000  9.697359E-01  2.516376E+01
    7.5857  9.647182E-01  2.600195E+01
    7.6714  9.165667E-01  2.681641E+01
    7.7571  9.194084E-01  2.765174E+01
    7.8429  9.016868E-01  2.848918E+01
    7.9286  9.150620E-01  2.935772E+01
    8.0143  9.380415E-01  3.026743E+01
    8.1000  9.334599E-01  3.119216E+01
    8.1857  9.022821E-01  3.210502E+01
    8.2714  8.828063E-01  3.301698E+01
    8.3571  8.773278E-01  3.394216E+01
    8.4429  8.288945E-01  3.483428E+01
    8.5286  8.381724E-01  3.575481E+01
    8.6143  8.833914E-01  3.674459E+01
    8.7000  9.056405E-01  3.777960E+01
    8.7857  9.287912E-01  3.886208E+01
    8.8714  9.694676E-01  4.001412E+01
    8.9571  1.014129E+00  4.124264E+01
    9.0429  1.003635E+00  4.248182E+01
    9.1286  1.006966E+00  4.374880E+01
    9.2143  1.031096E+00  4.507061E+01
    9.3000  1.029549E+00  4.641511E+01
    9.3857  1.005748E+00  4.775285E+01
    9.4714  1.053180E+00  4.917939E+01
    9.5571  1.047556E+00  5.062410E+01
    9.6429  1.032440E+00  5.207362E+01
    9.7286  1.038298E+00  5.355739E+01
    9.8143  1.045344E+00  5.507767E+01
    9.9000  1.083971E+00  5.668179E+01
    9.9857  1.072328E+00  5.829627E+01
   10.0714  1.073478E+00  5.994035E+01
   10.1571  1.032868E+00  6.154928E+01
   10.2429  1.033389E+00  6.318630E+01
   10.3286  1.017801E+00  6.482572E+01
   10.4143  1.020750E+00  6.649730E+01
   10.5000  1.017600E+00  6.819126E+01
   10.5857  1.008913E+00  6.989829E+01
   10.6714  1.002994E+00  7.162290E+01
   10.7571  9.750352E-01  7.332647E+01
   10.8429  9.573954E-01  7.502599E+01
   10.9286  9.811770E-01  7.679537E+01
   11.0143  9.631765E-01  7.855965E+01
   11.1000  9.589382E-01  8.034360E+01
   11.1857  9.849363E-01  8.220433E+01
   11.2714  9.671937E-01  8.405965E+01
   11.3571  9.568926E-01  8.592323E+01
   11.4429  9.516540E-01  8.780469E+01
   11.5286  9.407750E-01  8.969261E+01
   11.6143  9.496601E-01  9.162680E+01
   11.7000  9.459732E-01  9.358203E+01
   11.7857  9.796863E-01  9.563672E+01
   11.8714  9.910081E-01  9.774549E+01
   11.9571  1.009004E+00  9.992368E+01

g(r)  :Mg      Cl      

        r      g(r)         n(r)

    1.6714  0.000000E+00  0.000000E+00
    1.7571  0.000000E+00  0.000000E+00
    1.8429  7.323523E-04  7.512019E-05
    1.9286  1.738650E-02  2.028245E-03
    2.0143  3.224481E-01  4.154147E-02
    2.1000  1.750107E+00  2.746394E-01
    2.1857  4.641003E+00  9.442608E-01
    2.2714  6.539127E+00  1.963191E+00
    2.3571  5.893183E+00  2.952073E+00
    2.4429  3.975977E+00  3.668645E+00
    2.5286  2.357557E+00  4.123873E+00
    2.6143  1.374259E+00  4.407527E+00
    2.7000  8.434632E-01  4.593224E+00
    2.7857  6.125407E-01  4.736779E+00
    2.8714  4.344261E-01  4.844952E+00
    2.9571  3.848615E-01  4.946590E+00
    3.0429  3.229195E-01  5.036884E+00
    3.1286  2.813261E-01  5.120042E+00
    3.2143  2.754311E-01  5.205980E+00
    3.3000  2.412089E-01  5.285306E+00
    3.3857  2.666919E-01  5.377629E+00
    3.4714  2.995095E-01  5.486629E+00
    3.5571  3.397049E-01  5.616436E+00
    3.6429  3.683324E-01  5.764047E+00
    3.7286  4.448143E-01  5.950796E+00
    3.8143  5.166916E-01  6.177809E+00
    3.9000  5.552324E-01  6.432843E+00
    3.9857  5.770190E-01  6.709660E+00
    4.0714  6.182573E-01  7.019156E+00
    4.1571  7.035705E-01  7.386343E+00
    4.2429  7.496350E-01  7.793870E+00
    4.3286  8.762384E-01  8.289663E+00
    4.4143  9.546246E-01  8.851412E+00
    4.5000  1.025723E+00  9.478666E+00
    4.5857  1.078467E+00  1.016354E+01
    4.6714  1.150966E+00  1.092203E+01
    4.7571  1.215058E+00  1.175240E+01
    4.8429  1.194172E+00  1.259818E+01
    4.9286  1.248031E+00  1.351367E+01
    5.0143  1.308424E+00  1.450714E+01
    5.1000  1.383980E+00  1.559420E+01
    5.1857  1.373758E+00  1.670981E+01
    5.2714  1.406792E+00  1.789032E+01
    5.3571  1.435465E+00  1.913439E+01
    5.4429  1.347870E+00  2.034022E+01
    5.5286  1.303226E+00  2.154312E+01
    5.6143  1.231854E+00  2.271567E+01
    5.7000  1.159636E+00  2.385344E+01
    5.7857  1.130213E+00  2.499594E+01
    5.8714  1.062603E+00  2.610216E+01
    5.9571  9.881545E-01  2.716113E+01
    6.0429  9.535770E-01  2.821267E+01
    6.1286  8.943727E-01  2.922709E+01
    6.2143  8.292245E-01  3.019411E+01
    6.3000  8.064384E-01  3.116068E+01
    6.3857  8.001246E-01  3.214596E+01
    6.4714  7.985526E-01  3.315587E+01
    6.5571  7.964995E-01  3.419005E+01
    6.6429  7.987393E-01  3.525443E+01
    6.7286  7.918159E-01  3.633699E+01
    6.8143  8.143432E-01  3.747889E+01
    6.9000  8.215632E-01  3.866008E+01
    6.9857  8.420509E-01  3.990099E+01
    7.0714  8.537983E-01  4.119028E+01
    7.1571  8.758168E-01  4.254507E+01
    7.2429  8.950427E-01  4.396297E+01
    7.3286  9.588957E-01  4.551818E+01
    7.4143  1.033828E+00  4.723438E+01
    7.5000  1.010864E+00  4.895147E+01
    7.5857  1.029260E+00  5.074001E+01
    7.6714  1.084249E+00  5.266692E+01
    7.7571  1.102753E+00  5.467075E+01
    7.8429  1.119222E+00  5.674970E+01
    7.9286  1.129423E+00  5.889370E+01
    8.0143  1.148307E+00  6.112094E+01
    8.1000  1.167242E+00  6.343359E+01
    8.1857  1.141700E+00  6.574377E+01
    8.2714  1.132814E+00  6.808421E+01
    8.3571  1.112937E+00  7.043149E+01
    8.4429  1.089512E+00  7.277674E+01
    8.5286  1.079727E+00  7.514836E+01
    8.6143  1.054559E+00  7.751149E+01
    8.7000  1.016989E+00  7.983601E+01
    8.7857  1.023121E+00  8.222085E+01
    8.8714  1.010937E+00  8.462350E+01
    8.9571  9.929836E-01  8.702930E+01
    9.0429  9.866602E-01  8.946575E+01
    9.1286  9.623078E-01  9.188732E+01
    9.2143  9.403273E-01  9.429823E+01
    9.3000  9.527273E-01  9.678658E+01
    9.3857  9.236582E-01  9.924369E+01
    9.4714  9.125067E-01  1.017157E+02
    9.5571  9.169107E-01  1.042447E+02
    9.6429  8.941817E-01  1.067556E+02
    9.7286  9.286959E-01  1.094099E+02
    9.8143  9.385263E-01  1.121397E+02
    9.9000  9.425993E-01  1.149295E+02
    9.9857  9.489144E-01  1.177869E+02
   10.0714  9.481837E-01  1.206913E+02
   10.1571  9.462573E-01  1.236393E+02
   10.2429  9.760817E-01  1.267317E+02
   10.3286  9.669673E-01  1.298468E+02
   10.4143  9.988458E-01  1.331182E+02
   10.5000  1.009320E+00  1.364786E+02
   10.5857  1.013397E+00  1.399078E+02
   10.6714  1.007581E+00  1.433728E+02
   10.7571  1.013537E+00  1.469145E+02
   10.8429  1.023961E+00  1.505499E+02
   10.9286  1.036247E+00  1.542873E+02
   11.0143  1.054876E+00  1.581517E+02
   11.1000  1.061099E+00  1.620998E+02
   11.1857  1.067783E+00  1.661342E+02
   11.2714  1.040405E+00  1.701258E+02
   11.3571  1.043004E+00  1.741883E+02
   11.4429  1.048753E+00  1.783352E+02
   11.5286  1.045626E+00  1.825319E+02
   11.6143  1.044265E+00  1.867856E+02
   11.7000  1.025404E+00  1.910244E+02
   11.7857  1.003093E+00  1.952320E+02
   11.8714  9.896136E-01  1.994436E+02
   11.9571  1.003315E+00  2.037754E+02

g(r)  :Mg      Cl-shl  

        r      g(r)         n(r)

    1.7571  0.000000E+00  0.000000E+00
    1.8429  0.000000E+00  0.000000E+00
    1.9286  8.693249E-02  9.765625E-03
    2.0143  1.951240E+00  2.488732E-01
    2.1000  6.580808E+00  1.125376E+00
    2.1857  7.495163E+00  2.206806E+00
    2.2714  5.519980E+00  3.066932E+00
    2.3571  3.557667E+00  3.663912E+00
    2.4429  2.119910E+00  4.045974E+00
    2.5286  1.367461E+00  4.310021E+00
    2.6143  8.585481E-01  4.487230E+00
    2.7000  6.503402E-01  4.630409E+00
    2.7857  4.968279E-01  4.746845E+00
    2.8714  3.798212E-01  4.841421E+00
    2.9571  3.057843E-01  4.922175E+00
    3.0429  2.866515E-01  5.002329E+00
    3.1286  2.757351E-01  5.083834E+00
    3.2143  2.503919E-01  5.161959E+00
    3.3000  2.227071E-01  5.235201E+00
    3.3857  2.584459E-01  5.324669E+00
    3.4714  2.551301E-01  5.417518E+00
    3.5571  2.895748E-01  5.528170E+00
    3.6429  3.608345E-01  5.672776E+00
    3.7286  4.129652E-01  5.846154E+00
    3.8143  4.657406E-01  6.050781E+00
    3.9000  5.344623E-01  6.296274E+00
    3.9857  5.676239E-01  6.568585E+00
    4.0714  6.062523E-01  6.872070E+00
    4.1571  6.949342E-01  7.234751E+00
    4.2429  7.673222E-01  7.651893E+00
    4.3286  8.530048E-01  8.134540E+00
    4.4143  9.611352E-01  8.700120E+00
    4.5000  1.043535E+00  9.338266E+00
    4.5857  1.095856E+00  1.003418E+01
    4.6714  1.197816E+00  1.082354E+01
    4.7571  1.239021E+00  1.167030E+01
    4.8429  1.293235E+00  1.258624E+01
    4.9286  1.265645E+00  1.351465E+01
    5.0143  1.340974E+00  1.453283E+01
    5.1000  1.362557E+00  1.560306E+01
    5.1857  1.384951E+00  1.672776E+01
    5.2714  1.399630E+00  1.790227E+01
    5.3571  1.392386E+00  1.910900E+01
    5.4429  1.353916E+00  2.032024E+01
    5.5286  1.301843E+00  2.152186E+01
    5.6143  1.203443E+00  2.266737E+01
    5.7000  1.143864E+00  2.378966E+01
    5.7857  1.085403E+00  2.488687E+01
    5.8714  1.026957E+00  2.595598E+01
    5.9571  9.749063E-01  2.700075E+01
    6.0429  9.315734E-01  2.802802E+01
    6.1286  9.149041E-01  2.906573E+01
    6.2143  8.733494E-01  3.008421E+01
    6.3000  8.475532E-01  3.110006E+01
    6.3857  7.957933E-01  3.208000E+01
    6.4714  8.168473E-01  3.311306E+01
    6.5571  7.748037E-01  3.411907E+01
    6.6429  7.931584E-01  3.517601E+01
    6.7286  8.098379E-01  3.628320E+01
    6.8143  8.126824E-01  3.742278E+01
    6.9000  8.296095E-01  3.861553E+01
    6.9857  8.348125E-01  3.984578E+01
    7.0714  8.635486E-01  4.114979E+01
    7.1571  8.979611E-01  4.253884E+01
    7.2429  9.284734E-01  4.400969E+01
    7.3286  9.796919E-01  4.559863E+01
    7.4143  1.004595E+00  4.726630E+01
    7.5000  1.051328E+00  4.905213E+01
    7.5857  1.087707E+00  5.094223E+01
    7.6714  1.103186E+00  5.290279E+01
    7.7571  1.107176E+00  5.491466E+01
    7.8429  1.135561E+00  5.702396E+01
    7.9286  1.126099E+00  5.916166E+01
    8.0143  1.137617E+00  6.136816E+01
    8.1000  1.165384E+00  6.367713E+01
    8.1857  1.140735E+00  6.598535E+01
    8.2714  1.112307E+00  6.828343E+01
    8.3571  1.107167E+00  7.061854E+01
    8.4429  1.084312E+00  7.295260E+01
    8.5286  1.057770E+00  7.527599E+01
    8.6143  1.022444E+00  7.756716E+01
    8.7000  1.009463E+00  7.987447E+01
    8.7857  1.000368E+00  8.220628E+01
    8.8714  9.875471E-01  8.455334E+01
    8.9571  9.997118E-01  8.697544E+01
    9.0429  9.698681E-01  8.937042E+01
    9.1286  9.669050E-01  9.180356E+01
    9.2143  9.463923E-01  9.423002E+01
    9.3000  9.329681E-01  9.666677E+01
    9.3857  9.201848E-01  9.911463E+01
    9.4714  9.117302E-01  1.015845E+02
    9.5571  9.098842E-01  1.040942E+02
    9.6429  9.178311E-01  1.066714E+02
    9.7286  9.270927E-01  1.093211E+02
    9.8143  9.289190E-01  1.120231E+02
    9.9000  9.439191E-01  1.148168E+02
    9.9857  9.381621E-01  1.176418E+02
   10.0714  9.628737E-01  1.205911E+02
   10.1571  9.556852E-01  1.235685E+02
   10.2429  9.923232E-01  1.267124E+02
   10.3286  9.837332E-01  1.298815E+02
   10.4143  9.908182E-01  1.331267E+02
   10.5000  9.997979E-01  1.364553E+02
   10.5857  9.974805E-01  1.398307E+02
   10.6714  1.032221E+00  1.433804E+02
   10.7571  1.022673E+00  1.469540E+02
   10.8429  1.024448E+00  1.505911E+02
   10.9286  1.037205E+00  1.543320E+02
   11.0143  1.059347E+00  1.582128E+02
   11.1000  1.056072E+00  1.621421E+02
   11.1857  1.043627E+00  1.660853E+02
   11.2714  1.037899E+00  1.700672E+02
   11.3571  1.050931E+00  1.741607E+02
   11.4429  1.047766E+00  1.783036E+02
   11.5286  1.045476E+00  1.824997E+02
   11.6143  1.033476E+00  1.867095E+02
   11.7000  1.033054E+00  1.909799E+02
   11.7857  1.012692E+00  1.952278E+02
   11.8714  9.916259E-01  1.994479E+02
   11.9571  9.947025E-01  2.037426E+02

g(r)  :Cl      Cl      

        r      g(r)         n(r)

    2.4429  0.000000E+00  0.000000E+00
    2.5286  0.000000E+00  0.000000E+00
    2.6143  6.914970E-03  1.427284E-03
    2.7000  4.572171E-02  1.149339E-02
    2.7857  1.766143E-01  5.288462E-02
    2.8714  4.733434E-01  1.707482E-01
    2.9571  8.857788E-01  4.046725E-01
    3.0429  1.393766E+00  7.943960E-01
    3.1286  1.833829E+00  1.336463E+00
    3.2143  2.150722E+00  2.007512E+00
    3.3000  2.386963E+00  2.792518E+00
    3.3857  2.326013E+00  3.597731E+00
    3.4714  2.189660E+00  4.394606E+00
    3.5571  2.056709E+00  5.180514E+00
    3.6429  1.910830E+00  5.946289E+00
    3.7286  1.658660E+00  6.642653E+00
    3.8143  1.466638E+00  7.287034E+00
    3.9000  1.299685E+00  7.884014E+00
    3.9857  1.147775E+00  8.434645E+00
    4.0714  1.006619E+00  8.938552E+00
    4.1571  9.314248E-01  9.424654E+00
    4.2429  8.961075E-01  9.911809E+00
    4.3286  8.265849E-01  1.037951E+01
    4.4143  8.066693E-01  1.085419E+01
    4.5000  7.955187E-01  1.134067E+01
    4.5857  7.803718E-01  1.183624E+01
    4.6714  7.437905E-01  1.232640E+01
    4.7571  7.186584E-01  1.281753E+01
    4.8429  6.954601E-01  1.331010E+01
    4.9286  6.655416E-01  1.379830E+01
    5.0143  6.804796E-01  1.431498E+01
    5.1000  6.490961E-01  1.482482E+01
    5.1857  6.410441E-01  1.534540E+01
    5.2714  6.294085E-01  1.587357E+01
    5.3571  6.798977E-01  1.646282E+01
    5.4429  7.198660E-01  1.710682E+01
    5.5286  7.692559E-01  1.781686E+01
    5.6143  8.143702E-01  1.859202E+01
    5.7000  8.693060E-01  1.944494E+01
    5.7857  9.560257E-01  2.041136E+01
    5.8714  1.051491E+00  2.150601E+01
    5.9571  1.121058E+00  2.270741E+01
    6.0429  1.172659E+00  2.400053E+01
    6.1286  1.218570E+00  2.538266E+01
    6.2143  1.208376E+00  2.679184E+01
    6.3000  1.231249E+00  2.826758E+01
    6.3857  1.280041E+00  2.984383E+01
    6.4714  1.295896E+00  3.148272E+01
    6.5571  1.270974E+00  3.313296E+01
    6.6429  1.241093E+00  3.478681E+01
    6.7286  1.202092E+00  3.643029E+01
    6.8143  1.180077E+00  3.808504E+01
    6.9000  1.141066E+00  3.972559E+01
    6.9857  1.095446E+00  4.133992E+01
    7.0714  1.075767E+00  4.296439E+01
    7.1571  1.034518E+00  4.456468E+01
    7.2429  1.010272E+00  4.616511E+01
    7.3286  9.631569E-01  4.772724E+01
    7.4143  9.316039E-01  4.927374E+01
    7.5000  9.132623E-01  5.082505E+01
    7.5857  8.954207E-01  5.238101E+01
    7.6714  8.866824E-01  5.395681E+01
    7.7571  8.845999E-01  5.556423E+01
    7.8429  8.824770E-01  5.720343E+01
    7.9286  8.633415E-01  5.884232E+01
    8.0143  8.773515E-01  6.054402E+01
    8.1000  8.641897E-01  6.225623E+01
    8.1857  8.590687E-01  6.399452E+01
    8.2714  8.753163E-01  6.580296E+01
    8.3571  8.861966E-01  6.767203E+01
    8.4429  8.825675E-01  6.957181E+01
    8.5286  9.376942E-01  7.163146E+01
    8.6143  9.483249E-01  7.375654E+01
    8.7000  9.909921E-01  7.602163E+01
    8.7857  1.008103E+00  7.837147E+01
    8.8714  1.030059E+00  8.081956E+01
    8.9571  1.044701E+00  8.335066E+01
    9.0429  1.049053E+00  8.594118E+01
    9.1286  1.083149E+00  8.866684E+01
    9.2143  1.088405E+00  9.145741E+01
    9.3000  1.082845E+00  9.428561E+01
    9.3857  1.079649E+00  9.715768E+01
    9.4714  1.068043E+00  1.000510E+02
    9.5571  1.100772E+00  1.030872E+02
    9.6429  1.087951E+00  1.061421E+02
    9.7286  1.060113E+00  1.091720E+02
    9.8143  1.072875E+00  1.122927E+02
    9.9000  1.061129E+00  1.154333E+02
    9.9857  1.047481E+00  1.185874E+02
   10.0714  1.016754E+00  1.217018E+02
   10.1571  1.021584E+00  1.248845E+02
   10.2429  1.007640E+00  1.280770E+02
   10.3286  9.977709E-01  1.312913E+02
   10.4143  9.830658E-01  1.345110E+02
   10.5000  9.657952E-01  1.377265E+02
   10.5857  9.652249E-01  1.409927E+02
   10.6714  9.605945E-01  1.442961E+02
   10.7571  9.565474E-01  1.476387E+02
   10.8429  9.479374E-01  1.510041E+02
   10.9286  9.387707E-01  1.543899E+02
   11.0143  9.250366E-01  1.577788E+02
   11.1000  9.420191E-01  1.612837E+02
   11.1857  9.445765E-01  1.648527E+02
   11.2714  9.417196E-01  1.684656E+02
   11.3571  9.507983E-01  1.721690E+02
   11.4429  9.560236E-01  1.759492E+02
   11.5286  9.757190E-01  1.798653E+02
   11.6143  9.857500E-01  1.838807E+02
   11.7000  9.787740E-01  1.879268E+02
   11.7857  1.000299E+00  1.921226E+02
   11.8714  1.013884E+00  1.964375E+02
   11.9571  1.024211E+00  2.008595E+02

g(r)  :Cl      Cl-shl  

        r      g(r)         n(r)

    2.2714  0.000000E+00  0.000000E+00
    2.3571  0.000000E+00  0.000000E+00
    2.4429  1.042032E-03  1.878005E-04
    2.5286  9.920415E-03  2.103365E-03
    2.6143  3.621261E-02  9.577825E-03
    2.7000  1.496192E-01  4.251803E-02
    2.7857  3.565942E-01  1.260892E-01
    2.8714  7.569271E-01  3.145658E-01
    2.9571  1.149464E+00  6.181265E-01
    3.0429  1.581822E+00  1.060434E+00
    3.1286  1.867121E+00  1.612342E+00
    3.2143  2.097394E+00  2.266752E+00
    3.3000  2.179903E+00  2.983661E+00
    3.3857  2.146446E+00  3.726713E+00
    3.4714  2.070455E+00  4.480206E+00
    3.5571  1.943769E+00  5.222957E+00
    3.6429  1.815701E+00  5.950608E+00
    3.7286  1.623948E+00  6.632399E+00
    3.8143  1.407822E+00  7.250939E+00
    3.9000  1.228053E+00  7.815017E+00
    3.9857  1.156857E+00  8.370005E+00
    4.0714  1.031904E+00  8.886569E+00
    4.1571  9.307771E-01  9.372333E+00
    4.2429  8.928602E-01  9.857722E+00
    4.3286  8.717908E-01  1.035100E+01
    4.4143  8.482857E-01  1.085017E+01
    4.5000  8.022749E-01  1.134078E+01
    4.5857  7.790114E-01  1.183549E+01
    4.6714  7.121010E-01  1.230476E+01
    4.7571  6.803512E-01  1.276972E+01
    4.8429  6.627394E-01  1.323911E+01
    4.9286  6.246813E-01  1.369734E+01
    5.0143  6.451596E-01  1.418720E+01
    5.1000  6.355154E-01  1.468637E+01
    5.1857  6.244398E-01  1.519347E+01
    5.2714  6.518777E-01  1.574050E+01
    5.3571  7.143086E-01  1.635956E+01
    5.4429  7.303621E-01  1.701296E+01
    5.5286  7.742205E-01  1.772758E+01
    5.6143  8.354417E-01  1.852280E+01
    5.7000  9.014628E-01  1.940726E+01
    5.7857  9.777249E-01  2.039562E+01
    5.8714  1.079849E+00  2.151979E+01
    5.9571  1.155160E+00  2.275774E+01
    6.0429  1.193913E+00  2.407429E+01
    6.1286  1.212576E+00  2.544963E+01
    6.2143  1.238941E+00  2.689446E+01
    6.3000  1.254157E+00  2.839765E+01
    6.3857  1.278790E+00  2.997236E+01
    6.4714  1.292955E+00  3.160753E+01
    6.5571  1.255209E+00  3.323730E+01
    6.6429  1.221193E+00  3.486463E+01
    6.7286  1.200196E+00  3.650552E+01
    6.8143  1.162291E+00  3.813533E+01
    6.9000  1.135057E+00  3.976724E+01
    6.9857  1.091750E+00  4.137613E+01
    7.0714  1.044874E+00  4.295395E+01
    7.1571  1.030074E+00  4.454736E+01
    7.2429  1.007332E+00  4.614314E+01
    7.3286  9.542640E-01  4.769084E+01
    7.4143  9.390931E-01  4.924977E+01
    7.5000  9.189008E-01  5.081066E+01
    7.5857  8.714929E-01  5.232505E+01
    7.6714  8.849493E-01  5.389776E+01
    7.7571  8.804452E-01  5.549763E+01
    7.8429  8.796259E-01  5.713154E+01
    7.9286  8.840376E-01  5.880972E+01
    8.0143  8.577929E-01  6.047348E+01
    8.1000  8.649670E-01  6.218724E+01
    8.1857  8.706517E-01  6.394896E+01
    8.2714  8.652811E-01  6.573667E+01
    8.3571  8.885473E-01  6.761069E+01
    8.4429  9.045182E-01  6.955773E+01
    8.5286  9.310423E-01  7.160276E+01
    8.6143  9.696622E-01  7.377565E+01
    8.7000  9.921917E-01  7.604349E+01
    8.7857  1.003043E+00  7.838154E+01
    8.8714  1.023469E+00  8.081396E+01
    8.9571  1.062266E+00  8.338762E+01
    9.0429  1.073724E+00  8.603906E+01
    9.1286  1.082328E+00  8.876266E+01
    9.2143  1.078898E+00  9.152885E+01
    9.3000  1.091962E+00  9.438086E+01
    9.3857  1.088741E+00  9.727712E+01
    9.4714  1.086359E+00  1.002201E+02
    9.5571  1.072666E+00  1.031787E+02
    9.6429  1.076461E+00  1.062014E+02
    9.7286  1.070429E+00  1.092608E+02
    9.8143  1.055468E+00  1.123308E+02
    9.9000  1.049872E+00  1.154381E+02
    9.9857  1.045797E+00  1.185872E+02
   10.0714  1.023056E+00  1.217209E+02
   10.1571  1.016436E+00  1.248875E+02
   10.2429  9.993296E-01  1.280537E+02
   10.3286  9.799323E-01  1.312105E+02
   10.4143  9.747629E-01  1.344031E+02
   10.5000  9.770768E-01  1.376561E+02
   10.5857  9.619838E-01  1.409113E+02
   10.6714  9.555048E-01  1.441972E+02
   10.7571  9.512161E-01  1.475211E+02
   10.8429  9.451656E-01  1.508768E+02
   10.9286  9.490494E-01  1.542997E+02
   11.0143  9.430198E-01  1.577544E+02
   11.1000  9.450778E-01  1.612707E+02
   11.1857  9.390892E-01  1.648189E+02
   11.2714  9.419350E-01  1.684327E+02
   11.3571  9.467000E-01  1.721201E+02
   11.4429  9.724475E-01  1.759653E+02
   11.5286  9.773380E-01  1.798878E+02
   11.6143  9.732836E-01  1.838525E+02
   11.7000  9.833171E-01  1.879173E+02
   11.7857  1.003317E+00  1.921258E+02
   11.8714  1.004608E+00  1.964012E+02
   11.9571  1.022071E+00  2.008140E+02

g(r)  :Cl-shl  Cl-shl  

        r      g(r)         n(r)

    2.1000  0.000000E+00  0.000000E+00
    2.1857  0.000000E+00  0.000000E+00
    2.2714  1.928377E-03  3.004808E-04
    2.3571  8.058135E-03  1.652644E-03
    2.4429  1.875657E-02  5.033053E-03
    2.5286  5.485406E-02  1.562500E-02
    2.6143  1.637756E-01  4.942909E-02
    2.7000  4.053537E-01  1.386719E-01
    2.7857  7.891551E-01  3.236178E-01
    2.8714  1.104770E+00  5.987079E-01
    2.9571  1.331797E+00  9.504207E-01
    3.0429  1.525943E+00  1.377103E+00
    3.1286  1.764705E+00  1.898738E+00
    3.2143  1.930907E+00  2.501202E+00
    3.3000  1.973984E+00  3.150391E+00
    3.3857  1.992703E+00  3.840219E+00
    3.4714  2.024527E+00  4.576998E+00
    3.5571  1.896096E+00  5.301532E+00
    3.6429  1.750563E+00  6.003080E+00
    3.7286  1.499056E+00  6.632437E+00
    3.8143  1.335841E+00  7.219351E+00
    3.9000  1.186840E+00  7.764498E+00
    3.9857  1.111916E+00  8.297927E+00
    4.0714  1.009020E+00  8.803035E+00
    4.1571  9.810836E-01  9.315054E+00
    4.2429  9.535910E-01  9.833459E+00
    4.3286  8.743797E-01  1.032820E+01
    4.4143  8.191798E-01  1.081025E+01
    4.5000  8.011694E-01  1.130018E+01
    4.5857  7.497342E-01  1.177629E+01
    4.6714  7.043496E-01  1.224046E+01
    4.7571  6.244567E-01  1.266722E+01
    4.8429  6.053059E-01  1.309593E+01
    4.9286  6.106515E-01  1.354387E+01
    5.0143  6.139949E-01  1.401007E+01
    5.1000  6.434534E-01  1.451547E+01
    5.1857  6.528844E-01  1.504567E+01
    5.2714  6.710348E-01  1.560877E+01
    5.3571  6.849250E-01  1.620237E+01
    5.4429  7.435453E-01  1.686756E+01
    5.5286  8.114950E-01  1.761659E+01
    5.6143  8.564342E-01  1.843179E+01
    5.7000  9.340791E-01  1.934826E+01
    5.7857  1.015104E+00  2.037440E+01
    5.8714  1.088941E+00  2.150804E+01
    5.9571  1.156387E+00  2.274730E+01
    6.0429  1.230903E+00  2.410464E+01
    6.1286  1.237578E+00  2.550834E+01
    6.2143  1.267059E+00  2.698595E+01
    6.3000  1.274181E+00  2.851315E+01
    6.3857  1.272171E+00  3.007970E+01
    6.4714  1.290193E+00  3.171139E+01
    6.5571  1.277280E+00  3.336982E+01
    6.6429  1.215443E+00  3.498948E+01
    6.7286  1.178960E+00  3.660134E+01
    6.8143  1.157791E+00  3.822483E+01
    6.9000  1.098431E+00  3.980409E+01
    6.9857  1.072304E+00  4.138431E+01
    7.0714  1.048605E+00  4.296777E+01
    7.1571  1.014899E+00  4.453771E+01
    7.2429  1.008802E+00  4.613582E+01
    7.3286  9.589883E-01  4.769118E+01
    7.4143  9.391157E-01  4.925015E+01
    7.5000  8.968553E-01  5.077359E+01
    7.5857  8.923514E-01  5.232422E+01
    7.6714  8.734098E-01  5.387643E+01
    7.7571  8.778614E-01  5.547160E+01
    7.8429  8.882198E-01  5.712147E+01
    7.9286  8.522613E-01  5.873933E+01
    8.0143  8.419136E-01  6.037230E+01
    8.1000  8.663888E-01  6.208887E+01
    8.1857  8.902907E-01  6.389032E+01
    8.2714  8.791340E-01  6.570666E+01
    8.3571  8.973804E-01  6.759931E+01
    8.4429  9.077288E-01  6.955326E+01
    8.5286  9.431662E-01  7.162492E+01
    8.6143  9.557670E-01  7.376668E+01
    8.7000  9.925039E-01  7.603523E+01
    8.7857  1.037526E+00  7.845365E+01
    8.8714  1.034737E+00  8.091286E+01
    8.9571  1.051367E+00  8.346011E+01
    9.0429  1.078469E+00  8.612327E+01
    9.1286  1.096045E+00  8.888139E+01
    9.2143  1.088786E+00  9.167293E+01
    9.3000  1.088798E+00  9.451668E+01
    9.3857  1.069511E+00  9.736178E+01
    9.4714  1.077388E+00  1.002804E+02
    9.5571  1.084377E+00  1.032714E+02
    9.6429  1.077438E+00  1.062968E+02
    9.7286  1.056302E+00  1.093158E+02
    9.8143  1.042684E+00  1.123486E+02
    9.9000  1.042296E+00  1.154335E+02
    9.9857  1.029444E+00  1.185334E+02
   10.0714  1.033994E+00  1.217006E+02
   10.1571  1.014061E+00  1.248598E+02
   10.2429  9.849493E-01  1.279804E+02
   10.3286  9.681332E-01  1.310992E+02
   10.4143  9.777446E-01  1.343015E+02
   10.5000  9.773927E-01  1.375556E+02
   10.5857  9.741268E-01  1.408519E+02
   10.6714  9.407163E-01  1.440870E+02
   10.7571  9.621152E-01  1.474490E+02
   10.8429  9.583053E-01  1.508513E+02
   10.9286  9.325430E-01  1.542146E+02
   11.0143  9.361505E-01  1.576442E+02
   11.1000  9.495903E-01  1.611773E+02
   11.1857  9.460279E-01  1.647517E+02
   11.2714  9.544273E-01  1.684134E+02
   11.3571  9.604798E-01  1.721545E+02
   11.4429  9.505331E-01  1.759130E+02
   11.5286  9.881469E-01  1.798790E+02
   11.6143  9.755888E-01  1.838530E+02
   11.7000  9.902225E-01  1.879464E+02
   11.7857  9.950342E-01  1.921201E+02
   11.8714  1.005270E+00  1.963984E+02
   11.9571  1.020958E+00  2.008063E+02

 time elapsed since job start =           5.026 seconds

