
                    DL_POLY Classic 1.2

                              Running on    8 nodes


 ************************************************************************************************************************
 ************************************************************************************************************************
 ************************************************************************************************************************
 ***************     TEST CASE 38: TIP4P freezing                                                         ***************
 ************************************************************************************************************************
 ************************************************************************************************************************
 ************************************************************************************************************************


 SIMULATION CONTROL PARAMETERS


 velocity verlet integration selected

 simulation temperature           1.8000E+02

 simulation pressure (katm)       1.0000E-03

 selected number of timesteps       100000

 equilibration period                 5000

 Nose-Hoover  (Melchionna) isotropic N-P-T 
 thermostat relaxation time       5.0000E-02
 barostat relaxation time         5.0000E-01

 simulation timestep              1.0000E-03

 real space cut off               8.5000E+00

 border width of Verlet shell     5.0000E-01

 real space cut off (vdw)         8.5000E+00

 Ewald sum  precision             1.0000E-06

 Electrostatics : SPME  

 Ewald convergence parameter      3.8025E-01
 Ewald kmax1 kmax2 kmax3        16   16   16

 statistics file interval              100

 metadynamics controls
 total number of collective variables         2
 steinhardt parameters option (Q4/Q6)         T
 tetrahedral parameters option (zeta)         F
 global potential parameter option            T
 local potential parameter option             F
 global potential param. scale factor  0.8000E-06
 local potential param. scale factor   0.0000E+00
 number of Q4 atom pair types                 0
 number of Q6 atom pair types                 1
 number of zeta atom triplet types            0
 gaussian deposition interval               500
 reference gaussian height             0.3000E+01
 gaussian width parameter              0.2000E-01
 height control key                           2
 well-tempered control parameter       0.7500E+02

 user allocated job time (d)      5.0000

 job closure time        (s)     600.000


SYSTEM SPECIFICATION

 energy units=kjoule/mol 


 number of molecular types               1

 molecular species type                  1


 name of species:             tip4p water free                        

 number of molecules                   512

 number of atoms/sites                   4


 atomic characteristics:

                      site     name          mass        charge    repeat    freeze

                         1     O_tip4p     15.99980     0.00000         1         0
                         2     H_tip4p      1.00800     0.52000         1         0
                         3     H_tip4p      1.00800     0.52000         1         0
                         4     M_tip4p      0.00000    -1.04000         1         0

 number of rigid units                   1

 rigid body details:

                           unit   indices

                              1         1         2         3         4


 number of specified pair potentials         1


                atom 1  atom 2      key                              parameters


                O_tip4p O_tip4p   lj       6.48900E-01  3.15400E+00

  *** warning - undefined atom-atom interactions set to zero ***

 configuration file name: 

          tip4p configuration - generated from c                                          


 selected image convention               2


 simulation cell vectors


                        24.811017    0.000000    0.000000
                         0.000000   24.811017    0.000000
                         0.000000    0.000000   24.811017


 system volume            15273.3284066    


             summary of rigid body set up

 group of type          1
             total mass           18.0158000000
             rot. inertia          1.7696864300        1.1551151740        0.6145712561

             site        a coord        b coord        c coord
                1    0.00000E+00   -6.55613E-02   -0.00000E+00
                2    0.00000E+00    5.20321E-01    7.56950E-01
                3    0.00000E+00    5.20321E-01   -7.56950E-01
                4    0.00000E+00    8.44387E-02   -0.00000E+00


 total degrees of freedom                      3069.
 rotational degrees of freedom                 1536.
 shell pseudo degrees of freedom                  0.


 sample of starting configuration

      i       x(i)        y(i)        z(i)       vx(i)       vy(i)       vz(i)       fx(i)       fy(i)       fz(i)


      1  8.6970E-01  1.6722E+00  6.2782E+00  6.3205E+00 -8.6673E-01 -2.7457E+00  7.3878E+03  4.5421E+03 -1.0740E+03
    104 -1.0260E+00 -8.6533E+00 -5.9379E+00  7.2116E-01  6.5301E-02 -5.3505E+00 -6.7057E+02  1.9340E+04  2.2324E+03
    207 -9.1489E-01 -5.3233E+00  8.2859E+00 -8.1247E+00  2.1473E+01 -9.0803E+00  4.2387E+03  6.0327E+03  7.8238E+03
    310 -3.0549E+00 -2.4077E+00  1.2258E+01  2.4190E+00 -1.9218E+01  5.1282E+00 -1.0211E+04  5.0829E+02  1.0949E+03
    413  9.4419E+00  5.3331E-02  1.1724E+01 -4.8894E-01  3.3205E+00 -2.6875E+00 -4.9957E+03 -2.2114E+02 -1.4080E+03
    516 -5.0338E+00 -1.0114E+01 -1.8971E+00  2.2616E+00  2.0970E-01  4.1218E+00 -1.6012E+03  3.7704E+02  1.1140E+04
    619  5.2388E+00 -5.5941E+00  2.1202E+00  1.1453E+01  1.5351E+00  8.6765E+00  5.8891E+03 -5.6210E+03  1.4880E+03
    722 -1.0862E+00 -9.7264E+00 -1.0026E+00 -1.2867E+01 -4.1758E+00 -2.5110E+01 -6.7304E+03 -6.5727E+03  5.0213E+03
    825  3.8973E+00 -7.8841E+00  1.0797E+01 -2.2887E+00  3.8631E+00 -3.3427E+00  1.4394E+03  3.7247E+03  2.2417E+03
    928  6.8275E+00 -7.5700E+00 -1.0365E+01  1.1204E+00 -5.4563E+00 -6.4040E+00 -4.2360E+03  8.4012E+03 -9.7744E+03
   1031 -7.4655E+00 -1.1837E+01 -7.0982E+00  1.3292E+01 -5.3662E+00 -1.0123E+01 -1.9297E+03 -9.2509E+02 -3.5756E+03
   1134 -7.7499E+00 -1.3338E+00  8.8274E+00 -1.2204E+00  1.6354E+01 -8.1075E+00 -1.2115E+03  4.6725E+03  5.3899E+03
   1237 -1.1197E+01  8.9360E+00 -7.4891E+00  1.9556E+00 -5.0347E+00  1.9184E+00  4.2519E+02  1.1169E+04  1.0004E+03
   1340 -9.6801E+00  1.0458E+01  9.2413E+00 -1.8444E+00  4.1809E+00 -7.3833E+00 -1.0497E+04  5.2847E+03  6.7635E+03
   1443 -6.2745E+00 -2.9889E+00 -2.7629E+00  1.3929E-01  1.9294E+01  3.5459E+00  4.0138E+03 -2.6764E+03  6.3799E+03
   1546 -1.0724E+01  3.7402E+00  3.5466E+00 -1.9793E+01 -3.3861E+00 -1.2654E+01 -2.2853E+03 -5.8650E+01  9.0147E+03
   1649  7.2351E+00 -4.2485E+00  4.3006E+00 -5.6673E-01  4.5437E+00  1.8886E+00 -4.4599E+03 -3.2503E+03 -9.2332E+02
   1752 -1.0478E+01  1.6991E+00 -9.5220E+00 -3.4245E+00 -3.4203E+00 -4.2063E+00  1.2081E+04  8.5473E+03 -8.6660E+03
   1855 -2.8705E+00  5.8413E+00  7.0999E-02 -3.9951E+00  6.2261E+00 -2.6916E+00  6.4087E+03  7.4650E+03  3.3280E+03
   1958 -1.1990E+01 -7.0437E+00  1.1282E+00 -1.0654E+00 -1.1161E+01  9.2206E-01 -2.0979E+03  5.5249E+03  6.5295E+03


long range correction for: vdw energy    -0.149430E+03
                         : vdw pressure  -0.320397E+00

 time elapsed since job start =           0.745 seconds

 ------------------------------------------------------------------------------------------------------------------------

     step     eng_tot    temp_tot     eng_cfg     eng_vdw     eng_cou     eng_bnd     eng_ang     eng_dih     eng_tet
 time          eng_pv    temp_rot     vir_cfg     vir_vdw     vir_cou     vir_bnd     vir_ang     vir_con     vir_tet
 cpu time      volume    temp_shl     eng_shl     vir_shl       alpha        beta       gamma     vir_pmf       press

 ------------------------------------------------------------------------------------------------------------------------
        1 -1.8914E+04  1.8250E+02 -2.1244E+04  3.9911E+03 -2.5235E+04  0.0000E+00  0.0000E+00  0.0000E+00  0.0000E+00
   1.000f -1.8572E+04  1.8059E+02  1.3197E+03 -9.4772E+04  2.5235E+04  0.0000E+00  0.0000E+00  0.0000E+00  0.0000E+00
   1.009s  1.5274E+04  0.0000E+00  0.0000E+00  0.0000E+00  9.0000E+01  9.0000E+01  9.0000E+01  0.0000E+00  3.6869E-01

  rolling -1.8914E+04  1.8250E+02 -2.1244E+04  3.9911E+03 -2.5235E+04  0.0000E+00  0.0000E+00  0.0000E+00  0.0000E+00
 averages -1.8572E+04  1.8059E+02  1.3197E+03 -9.4772E+04  2.5235E+04  0.0000E+00  0.0000E+00  0.0000E+00  0.0000E+00
           1.5274E+04  0.0000E+00  0.0000E+00  0.0000E+00  9.0000E+01  9.0000E+01  9.0000E+01  0.0000E+00  3.6869E-01
 ------------------------------------------------------------------------------------------------------------------------
      100 -1.8917E+04  1.7030E+02 -2.3237E+04  4.5478E+03 -2.7784E+04  0.0000E+00  0.0000E+00  0.0000E+00  0.0000E+00
 100.000f -2.1499E+04  1.7535E+02  3.4105E+03 -1.0349E+05  2.7787E+04  0.0000E+00  0.0000E+00  0.0000E+00  0.0000E+00
  12.232s  1.4923E+04  0.0000E+00  0.0000E+00  0.0000E+00  9.0000E+01  9.0000E+01  9.0000E+01  0.0000E+00 -4.7747E-01

  rolling -1.8916E+04  2.0779E+02 -2.2394E+04  4.0801E+03 -2.6474E+04  0.0000E+00  0.0000E+00  0.0000E+00  0.0000E+00
 averages -2.0634E+04  2.1782E+02  5.1944E+03 -9.6292E+04  2.6475E+04  0.0000E+00  0.0000E+00  0.0000E+00  0.0000E+00
           1.5178E+04  0.0000E+00  0.0000E+00  0.0000E+00  9.0000E+01  9.0000E+01  9.0000E+01  0.0000E+00 -9.6107E-01
 ------------------------------------------------------------------------------------------------------------------------
      200 -1.8918E+04  1.4220E+02 -2.4247E+04  5.1995E+03 -2.9446E+04  0.0000E+00  0.0000E+00  0.0000E+00  0.0000E+00
 200.000f -2.1746E+04  1.2746E+02 -6.0049E+01 -1.1393E+05  2.9448E+04  0.0000E+00  0.0000E+00  0.0000E+00  0.0000E+00
  23.617s  1.4459E+04  0.0000E+00  0.0000E+00  0.0000E+00  9.0000E+01  9.0000E+01  9.0000E+01  0.0000E+00  7.7859E-01

  rolling -1.8918E+04  1.4989E+02 -2.3913E+04  4.9995E+03 -2.8913E+04  0.0000E+00  0.0000E+00  0.0000E+00  0.0000E+00
 averages -2.1659E+04  1.4382E+02  9.6311E+02 -1.1060E+05  2.8915E+04  0.0000E+00  0.0000E+00  0.0000E+00  0.0000E+00
           1.4634E+04  0.0000E+00  0.0000E+00  0.0000E+00  9.0000E+01  9.0000E+01  9.0000E+01  0.0000E+00  3.8644E-01
 ------------------------------------------------------------------------------------------------------------------------
      300 -1.8917E+04  1.9325E+02 -2.3866E+04  5.0020E+03 -2.8868E+04  0.0000E+00  0.0000E+00  0.0000E+00  0.0000E+00
 300.000f -2.0839E+04  1.6274E+02  1.1693E+03 -1.1058E+05  2.8869E+04  0.0000E+00  0.0000E+00  0.0000E+00  0.0000E+00
  34.988s  1.4620E+04  0.0000E+00  0.0000E+00  0.0000E+00  9.0000E+01  9.0000E+01  9.0000E+01  0.0000E+00  6.2912E-01

  rolling -1.8918E+04  1.7097E+02 -2.4182E+04  5.0716E+03 -2.9254E+04  0.0000E+00  0.0000E+00  0.0000E+00  0.0000E+00
 averages -2.1553E+04  1.4611E+02  1.1524E+03 -1.1206E+05  2.9255E+04  0.0000E+00  0.0000E+00  0.0000E+00  0.0000E+00
           1.4498E+04  0.0000E+00  0.0000E+00  0.0000E+00  9.0000E+01  9.0000E+01  9.0000E+01  0.0000E+00  5.0628E-01
 ------------------------------------------------------------------------------------------------------------------------
      400 -1.8917E+04  1.9022E+02 -2.3616E+04  4.4737E+03 -2.8090E+04  0.0000E+00  0.0000E+00  0.0000E+00  0.0000E+00
 400.000f -2.2318E+04  1.7320E+02  6.0289E+03 -1.0280E+05  2.8090E+04  0.0000E+00  0.0000E+00  0.0000E+00  0.0000E+00
  46.315s  1.4820E+04  0.0000E+00  0.0000E+00  0.0000E+00  9.0000E+01  9.0000E+01  9.0000E+01  0.0000E+00 -1.2485E+00

  rolling -1.8917E+04  1.9461E+02 -2.3633E+04  4.5572E+03 -2.8190E+04  0.0000E+00  0.0000E+00  0.0000E+00  0.0000E+00
 averages -2.1903E+04  1.6981E+02  5.0561E+03 -1.0397E+05  2.8190E+04  0.0000E+00  0.0000E+00  0.0000E+00  0.0000E+00
           1.4802E+04  0.0000E+00  0.0000E+00  0.0000E+00  9.0000E+01  9.0000E+01  9.0000E+01  0.0000E+00 -8.3079E-01
 ------------------------------------------------------------------------------------------------------------------------
      500 -1.8917E+04  1.7773E+02 -2.3997E+04  4.9707E+03 -2.8968E+04  0.0000E+00  0.0000E+00  0.0000E+00  0.0000E+00
 500.000f -2.1360E+04  1.5840E+02  1.4035E+03 -1.1059E+05  2.8968E+04  0.0000E+00  0.0000E+00  0.0000E+00  0.0000E+00
  57.679s  1.4573E+04  0.0000E+00  0.0000E+00  0.0000E+00  9.0000E+01  9.0000E+01  9.0000E+01  0.0000E+00  4.1565E-01

  rolling -1.8917E+04  1.7902E+02 -2.3759E+04  4.9610E+03 -2.8720E+04  0.0000E+00  0.0000E+00  0.0000E+00  0.0000E+00
 averages -2.1007E+04  1.6298E+02  1.0806E+03 -1.1005E+05  2.8720E+04  0.0000E+00  0.0000E+00  0.0000E+00  0.0000E+00
           1.4631E+04  0.0000E+00  0.0000E+00  0.0000E+00  9.0000E+01  9.0000E+01  9.0000E+01  0.0000E+00  5.2904E-01
 ------------------------------------------------------------------------------------------------------------------------
      600 -1.8917E+04  1.7499E+02 -2.3982E+04  4.9267E+03 -2.8909E+04  0.0000E+00  0.0000E+00  0.0000E+00  0.0000E+00
 600.000f -2.1998E+04  1.5930E+02  3.1766E+03 -1.0876E+05  2.8911E+04  0.0000E+00  0.0000E+00  0.0000E+00  0.0000E+00
   1.151m  1.4856E+04  0.0000E+00  0.0000E+00  0.0000E+00  9.0000E+01  9.0000E+01  9.0000E+01  0.0000E+00 -2.7418E-01

  rolling -1.8917E+04  1.7344E+02 -2.4010E+04  4.9640E+03 -2.8974E+04  0.0000E+00  0.0000E+00  0.0000E+00  0.0000E+00
 averages -2.1758E+04  1.5516E+02  2.3263E+03 -1.0989E+05  2.8975E+04  0.0000E+00  0.0000E+00  0.0000E+00  0.0000E+00
           1.4709E+04  0.0000E+00  0.0000E+00  0.0000E+00  9.0000E+01  9.0000E+01  9.0000E+01  0.0000E+00  4.4931E-02
 ------------------------------------------------------------------------------------------------------------------------
      700 -1.8915E+04  1.9416E+02 -2.3857E+04  5.0750E+03 -2.8932E+04  0.0000E+00  0.0000E+00  0.0000E+00  0.0000E+00
 700.000f -2.0582E+04  1.7530E+02  3.2163E+02 -1.1119E+05  2.8934E+04  0.0000E+00  0.0000E+00  0.0000E+00  0.0000E+00
   1.340m  1.4716E+04  0.0000E+00  0.0000E+00  0.0000E+00  9.0000E+01  9.0000E+01  9.0000E+01  0.0000E+00  8.8874E-01

  rolling -1.8915E+04  1.8121E+02 -2.3867E+04  4.8016E+03 -2.8669E+04  0.0000E+00  0.0000E+00  0.0000E+00  0.0000E+00
 averages -2.1823E+04  1.6300E+02  3.3456E+03 -1.0716E+05  2.8670E+04  0.0000E+00  0.0000E+00  0.0000E+00  0.0000E+00
           1.4847E+04  0.0000E+00  0.0000E+00  0.0000E+00  9.0000E+01  9.0000E+01  9.0000E+01  0.0000E+00 -2.9273E-01
 ------------------------------------------------------------------------------------------------------------------------
 ------------------------------------------------------------------------------------------------------------------------

     step     eng_tot    temp_tot     eng_cfg     eng_vdw     eng_cou     eng_bnd     eng_ang     eng_dih     eng_tet
 time          eng_pv    temp_rot     vir_cfg     vir_vdw     vir_cou     vir_bnd     vir_ang     vir_con     vir_tet
 cpu time      volume    temp_shl     eng_shl     vir_shl       alpha        beta       gamma     vir_pmf       press

 ------------------------------------------------------------------------------------------------------------------------
      800 -1.8916E+04  1.7633E+02 -2.3948E+04  4.8858E+03 -2.8834E+04  0.0000E+00  0.0000E+00  0.0000E+00  0.0000E+00
 800.000f -2.1720E+04  1.5965E+02  2.5232E+03 -1.0893E+05  2.8835E+04  0.0000E+00  0.0000E+00  0.0000E+00  0.0000E+00
   1.528m  1.4650E+04  0.0000E+00  0.0000E+00  0.0000E+00  9.0000E+01  9.0000E+01  9.0000E+01  0.0000E+00 -2.3327E-02

  rolling -1.8915E+04  1.8567E+02 -2.3860E+04  4.9466E+03 -2.8807E+04  0.0000E+00  0.0000E+00  0.0000E+00  0.0000E+00
 averages -2.1100E+04  1.6647E+02  1.4389E+03 -1.0962E+05  2.8808E+04  0.0000E+00  0.0000E+00  0.0000E+00  0.0000E+00
           1.4669E+04  0.0000E+00  0.0000E+00  0.0000E+00  9.0000E+01  9.0000E+01  9.0000E+01  0.0000E+00  4.3652E-01
 ------------------------------------------------------------------------------------------------------------------------
      900 -1.8916E+04  1.7677E+02 -2.4065E+04  5.0490E+03 -2.9114E+04  0.0000E+00  0.0000E+00  0.0000E+00  0.0000E+00
 900.000f -2.1609E+04  1.5525E+02  1.9243E+03 -1.1150E+05  2.9116E+04  0.0000E+00  0.0000E+00  0.0000E+00  0.0000E+00
   1.718m  1.4522E+04  0.0000E+00  0.0000E+00  0.0000E+00  9.0000E+01  9.0000E+01  9.0000E+01  0.0000E+00  2.2712E-01

  rolling -1.8916E+04  1.7399E+02 -2.4030E+04  4.9364E+03 -2.8966E+04  0.0000E+00  0.0000E+00  0.0000E+00  0.0000E+00
 averages -2.1898E+04  1.5609E+02  2.7105E+03 -1.0980E+05  2.8967E+04  0.0000E+00  0.0000E+00  0.0000E+00  0.0000E+00
           1.4591E+04  0.0000E+00  0.0000E+00  0.0000E+00  9.0000E+01  9.0000E+01  9.0000E+01  0.0000E+00 -9.8683E-02
 ------------------------------------------------------------------------------------------------------------------------
     1000 -1.8916E+04  1.8646E+02 -2.4074E+04  4.7323E+03 -2.8807E+04  0.0000E+00  0.0000E+00  0.0000E+00  0.0000E+00
   1.000p -2.2600E+04  1.6092E+02  5.4169E+03 -1.0667E+05  2.8809E+04  0.0000E+00  0.0000E+00  0.0000E+00  0.0000E+00
   1.908m  1.4696E+04  0.0000E+00  0.0000E+00  0.0000E+00  9.0000E+01  9.0000E+01  9.0000E+01  0.0000E+00 -1.0088E+00

  rolling -1.8916E+04  1.8179E+02 -2.4054E+04  5.0370E+03 -2.9091E+04  0.0000E+00  0.0000E+00  0.0000E+00  0.0000E+00
 averages -2.1480E+04  1.5921E+02  1.8420E+03 -1.1119E+05  2.9092E+04  0.0000E+00  0.0000E+00  0.0000E+00  0.0000E+00
           1.4563E+04  0.0000E+00  0.0000E+00  0.0000E+00  9.0000E+01  9.0000E+01  9.0000E+01  0.0000E+00  2.8772E-01
 ------------------------------------------------------------------------------------------------------------------------
     1100 -1.8915E+04  1.8627E+02 -2.4113E+04  4.8660E+03 -2.8979E+04  0.0000E+00  0.0000E+00  0.0000E+00  0.0000E+00
   1.100p -2.2319E+04  1.6714E+02  4.3645E+03 -1.0855E+05  2.8981E+04  0.0000E+00  0.0000E+00  0.0000E+00  0.0000E+00
   2.100m  1.4674E+04  0.0000E+00  0.0000E+00  0.0000E+00  9.0000E+01  9.0000E+01  9.0000E+01  0.0000E+00 -6.4995E-01

  rolling -1.8916E+04  1.7993E+02 -2.4026E+04  4.8230E+03 -2.8849E+04  0.0000E+00  0.0000E+00  0.0000E+00  0.0000E+00
 averages -2.2168E+04  1.6070E+02  3.8529E+03 -1.0772E+05  2.8851E+04  0.0000E+00  0.0000E+00  0.0000E+00  0.0000E+00
           1.4725E+04  0.0000E+00  0.0000E+00  0.0000E+00  9.0000E+01  9.0000E+01  9.0000E+01  0.0000E+00 -4.8767E-01
 ------------------------------------------------------------------------------------------------------------------------
     1200 -1.8916E+04  1.8356E+02 -2.4050E+04  5.0944E+03 -2.9144E+04  0.0000E+00  0.0000E+00  0.0000E+00  0.0000E+00
   1.200p -2.1105E+04  1.6467E+02  7.7187E+02 -1.1246E+05  2.9146E+04  0.0000E+00  0.0000E+00  0.0000E+00  0.0000E+00
   2.290m  1.4407E+04  0.0000E+00  0.0000E+00  0.0000E+00  9.0000E+01  9.0000E+01  9.0000E+01  0.0000E+00  6.8596E-01

  rolling -1.8916E+04  1.7924E+02 -2.4025E+04  4.9543E+03 -2.8980E+04  0.0000E+00  0.0000E+00  0.0000E+00  0.0000E+00
 averages -2.1562E+04  1.6218E+02  1.9717E+03 -1.1020E+05  2.8981E+04  0.0000E+00  0.0000E+00  0.0000E+00  0.0000E+00
           1.4530E+04  0.0000E+00  0.0000E+00  0.0000E+00  9.0000E+01  9.0000E+01  9.0000E+01  0.0000E+00  2.0165E-01
 ------------------------------------------------------------------------------------------------------------------------
     1300 -1.8916E+04  1.7711E+02 -2.3976E+04  4.7033E+03 -2.8679E+04  0.0000E+00  0.0000E+00  0.0000E+00  0.0000E+00
   1.300p -2.1985E+04  1.5711E+02  3.3204E+03 -1.0683E+05  2.8679E+04  0.0000E+00  0.0000E+00  0.0000E+00  0.0000E+00
   2.481m  1.4550E+04  0.0000E+00  0.0000E+00  0.0000E+00  9.0000E+01  9.0000E+01  9.0000E+01  0.0000E+00 -3.0319E-01

  rolling -1.8916E+04  1.8093E+02 -2.4015E+04  4.9171E+03 -2.8932E+04  0.0000E+00  0.0000E+00  0.0000E+00  0.0000E+00
 averages -2.1488E+04  1.6156E+02  1.8988E+03 -1.0995E+05  2.8933E+04  0.0000E+00  0.0000E+00  0.0000E+00  0.0000E+00
           1.4460E+04  0.0000E+00  0.0000E+00  0.0000E+00  9.0000E+01  9.0000E+01  9.0000E+01  0.0000E+00  2.4941E-01
 ------------------------------------------------------------------------------------------------------------------------
     1400 -1.8916E+04  1.8694E+02 -2.3991E+04  4.9929E+03 -2.8984E+04  0.0000E+00  0.0000E+00  0.0000E+00  0.0000E+00
   1.400p -2.1111E+04  1.6931E+02  1.1203E+03 -1.1060E+05  2.8985E+04  0.0000E+00  0.0000E+00  0.0000E+00  0.0000E+00
   2.671m  1.4584E+04  0.0000E+00  0.0000E+00  0.0000E+00  9.0000E+01  9.0000E+01  9.0000E+01  0.0000E+00  5.5716E-01

  rolling -1.8916E+04  1.7944E+02 -2.3959E+04  4.9045E+03 -2.8864E+04  0.0000E+00  0.0000E+00  0.0000E+00  0.0000E+00
 averages -2.1289E+04  1.6422E+02  1.3407E+03 -1.0950E+05  2.8864E+04  0.0000E+00  0.0000E+00  0.0000E+00  0.0000E+00
           1.4554E+04  0.0000E+00  0.0000E+00  0.0000E+00  9.0000E+01  9.0000E+01  9.0000E+01  0.0000E+00  4.2833E-01
 ------------------------------------------------------------------------------------------------------------------------
     1500 -1.8916E+04  1.7924E+02 -2.4108E+04  4.9440E+03 -2.9052E+04  0.0000E+00  0.0000E+00  0.0000E+00  0.0000E+00
   1.500p -2.2168E+04  1.6294E+02  3.5350E+03 -1.0957E+05  2.9053E+04  0.0000E+00  0.0000E+00  0.0000E+00  0.0000E+00
   2.860m  1.4678E+04  0.0000E+00  0.0000E+00  0.0000E+00  9.0000E+01  9.0000E+01  9.0000E+01  0.0000E+00 -3.8794E-01

  rolling -1.8916E+04  1.8322E+02 -2.4026E+04  4.8315E+03 -2.8858E+04  0.0000E+00  0.0000E+00  0.0000E+00  0.0000E+00
 averages -2.1948E+04  1.6671E+02  3.3244E+03 -1.0818E+05  2.8859E+04  0.0000E+00  0.0000E+00  0.0000E+00  0.0000E+00
           1.4670E+04  0.0000E+00  0.0000E+00  0.0000E+00  9.0000E+01  9.0000E+01  9.0000E+01  0.0000E+00 -2.8889E-01
 ------------------------------------------------------------------------------------------------------------------------
 ------------------------------------------------------------------------------------------------------------------------

     step     eng_tot    temp_tot     eng_cfg     eng_vdw     eng_cou     eng_bnd     eng_ang     eng_dih     eng_tet
 time          eng_pv    temp_rot     vir_cfg     vir_vdw     vir_cou     vir_bnd     vir_ang     vir_con     vir_tet
 cpu time      volume    temp_shl     eng_shl     vir_shl       alpha        beta       gamma     vir_pmf       press

 ------------------------------------------------------------------------------------------------------------------------
     1600 -1.8911E+04  1.7063E+02 -2.4229E+04  5.0670E+03 -2.9296E+04  0.0000E+00  0.0000E+00  0.0000E+00  0.0000E+00
   1.600p -2.2504E+04  1.5445E+02  3.7358E+03 -1.1155E+05  2.9297E+04  0.0000E+00  0.0000E+00  0.0000E+00  0.0000E+00
   3.051m  1.4595E+04  0.0000E+00  0.0000E+00  0.0000E+00  9.0000E+01  9.0000E+01  9.0000E+01  0.0000E+00 -5.0693E-01

  rolling -1.8913E+04  1.7732E+02 -2.4224E+04  5.0701E+03 -2.9294E+04  0.0000E+00  0.0000E+00  0.0000E+00  0.0000E+00
 averages -2.2404E+04  1.6133E+02  3.7936E+03 -1.1153E+05  2.9295E+04  0.0000E+00  0.0000E+00  0.0000E+00  0.0000E+00
           1.4615E+04  0.0000E+00  0.0000E+00  0.0000E+00  9.0000E+01  9.0000E+01  9.0000E+01  0.0000E+00 -4.9652E-01
 ------------------------------------------------------------------------------------------------------------------------
     1700 -1.8916E+04  1.8675E+02 -2.4189E+04  5.0803E+03 -2.9269E+04  0.0000E+00  0.0000E+00  0.0000E+00  0.0000E+00
   1.700p -2.2135E+04  1.6698E+02  3.6190E+03 -1.1178E+05  2.9272E+04  0.0000E+00  0.0000E+00  0.0000E+00  0.0000E+00
   3.241m  1.4577E+04  0.0000E+00  0.0000E+00  0.0000E+00  9.0000E+01  9.0000E+01  9.0000E+01  0.0000E+00 -3.6958E-01

  rolling -1.8915E+04  1.7732E+02 -2.4221E+04  4.9903E+03 -2.9211E+04  0.0000E+00  0.0000E+00  0.0000E+00  0.0000E+00
 averages -2.2673E+04  1.6082E+02  4.6161E+03 -1.1053E+05  2.9213E+04  0.0000E+00  0.0000E+00  0.0000E+00  0.0000E+00
           1.4601E+04  0.0000E+00  0.0000E+00  0.0000E+00  9.0000E+01  9.0000E+01  9.0000E+01  0.0000E+00 -8.0239E-01
 ------------------------------------------------------------------------------------------------------------------------
     1800 -1.8918E+04  1.7444E+02 -2.4023E+04  4.7920E+03 -2.8816E+04  0.0000E+00  0.0000E+00  0.0000E+00  0.0000E+00
   1.800p -2.2177E+04  1.6249E+02  3.5137E+03 -1.0750E+05  2.8818E+04  0.0000E+00  0.0000E+00  0.0000E+00  0.0000E+00
   3.432m  1.4675E+04  0.0000E+00  0.0000E+00  0.0000E+00  9.0000E+01  9.0000E+01  9.0000E+01  0.0000E+00 -4.2351E-01

  rolling -1.8918E+04  1.8241E+02 -2.4108E+04  5.0009E+03 -2.9109E+04  0.0000E+00  0.0000E+00  0.0000E+00  0.0000E+00
 averages -2.1920E+04  1.6441E+02  2.9750E+03 -1.1056E+05  2.9110E+04  0.0000E+00  0.0000E+00  0.0000E+00  0.0000E+00
           1.4609E+04  0.0000E+00  0.0000E+00  0.0000E+00  9.0000E+01  9.0000E+01  9.0000E+01  0.0000E+00 -1.5679E-01
 ------------------------------------------------------------------------------------------------------------------------
     1900 -1.8917E+04  1.8541E+02 -2.4179E+04  5.1975E+03 -2.9376E+04  0.0000E+00  0.0000E+00  0.0000E+00  0.0000E+00
   1.900p -2.1631E+04  1.7172E+02  1.9924E+03 -1.1361E+05  2.9377E+04  0.0000E+00  0.0000E+00  0.0000E+00  0.0000E+00
   3.621m  1.4487E+04  0.0000E+00  0.0000E+00  0.0000E+00  9.0000E+01  9.0000E+01  9.0000E+01  0.0000E+00  2.0577E-01

  rolling -1.8918E+04  1.8215E+02 -2.4112E+04  4.8946E+03 -2.9007E+04  0.0000E+00  0.0000E+00  0.0000E+00  0.0000E+00
 averages -2.2228E+04  1.6571E+02  3.8512E+03 -1.0916E+05  2.9009E+04  0.0000E+00  0.0000E+00  0.0000E+00  0.0000E+00
           1.4602E+04  0.0000E+00  0.0000E+00  0.0000E+00  9.0000E+01  9.0000E+01  9.0000E+01  0.0000E+00 -4.9216E-01
 ------------------------------------------------------------------------------------------------------------------------
     2000 -1.8915E+04  1.7254E+02 -2.4199E+04  4.8333E+03 -2.9033E+04  0.0000E+00  0.0000E+00  0.0000E+00  0.0000E+00
   2.000p -2.3116E+04  1.5752E+02  5.7458E+03 -1.0861E+05  2.9033E+04  0.0000E+00  0.0000E+00  0.0000E+00  0.0000E+00
   3.812m  1.4523E+04  0.0000E+00  0.0000E+00  0.0000E+00  9.0000E+01  9.0000E+01  9.0000E+01  0.0000E+00 -1.2619E+00

  rolling -1.8916E+04  1.7756E+02 -2.4194E+04  4.9625E+03 -2.9157E+04  0.0000E+00  0.0000E+00  0.0000E+00  0.0000E+00
 averages -2.2603E+04  1.6254E+02  4.4792E+03 -1.1033E+05  2.9157E+04  0.0000E+00  0.0000E+00  0.0000E+00  0.0000E+00
           1.4517E+04  0.0000E+00  0.0000E+00  0.0000E+00  9.0000E+01  9.0000E+01  9.0000E+01  0.0000E+00 -7.6007E-01
 ------------------------------------------------------------------------------------------------------------------------
     2100 -1.8913E+04  1.8719E+02 -2.4274E+04  4.7584E+03 -2.9033E+04  0.0000E+00  0.0000E+00  0.0000E+00  0.0000E+00
   2.100p -2.3555E+04  1.6852E+02  7.6326E+03 -1.0755E+05  2.9034E+04  0.0000E+00  0.0000E+00  0.0000E+00  0.0000E+00
   4.003m  1.4549E+04  0.0000E+00  0.0000E+00  0.0000E+00  9.0000E+01  9.0000E+01  9.0000E+01  0.0000E+00 -1.8805E+00

  rolling -1.8914E+04  1.8008E+02 -2.4248E+04  5.1072E+03 -2.9355E+04  0.0000E+00  0.0000E+00  0.0000E+00  0.0000E+00
 averages -2.2408E+04  1.6622E+02  3.8447E+03 -1.1243E+05  2.9357E+04  0.0000E+00  0.0000E+00  0.0000E+00  0.0000E+00
           1.4474E+04  0.0000E+00  0.0000E+00  0.0000E+00  9.0000E+01  9.0000E+01  9.0000E+01  0.0000E+00 -5.1570E-01
 ------------------------------------------------------------------------------------------------------------------------
     2200 -1.8912E+04  1.7425E+02 -2.4312E+04  5.2303E+03 -2.9542E+04  0.0000E+00  0.0000E+00  0.0000E+00  0.0000E+00
   2.200p -2.2530E+04  1.6186E+02  3.7032E+03 -1.1393E+05  2.9544E+04  0.0000E+00  0.0000E+00  0.0000E+00  0.0000E+00
   4.194m  1.4526E+04  0.0000E+00  0.0000E+00  0.0000E+00  9.0000E+01  9.0000E+01  9.0000E+01  0.0000E+00 -4.9791E-01

  rolling -1.8912E+04  1.8340E+02 -2.4296E+04  4.9920E+03 -2.9288E+04  0.0000E+00  0.0000E+00  0.0000E+00  0.0000E+00
 averages -2.2950E+04  1.6652E+02  5.5360E+03 -1.1067E+05  2.9289E+04  0.0000E+00  0.0000E+00  0.0000E+00  0.0000E+00
           1.4550E+04  0.0000E+00  0.0000E+00  0.0000E+00  9.0000E+01  9.0000E+01  9.0000E+01  0.0000E+00 -1.1196E+00
 ------------------------------------------------------------------------------------------------------------------------
     2300 -1.8911E+04  1.7587E+02 -2.4387E+04  5.0692E+03 -2.9457E+04  0.0000E+00  0.0000E+00  0.0000E+00  0.0000E+00
   2.300p -2.3288E+04  1.6866E+02  5.7682E+03 -1.1157E+05  2.9457E+04  0.0000E+00  0.0000E+00  0.0000E+00  0.0000E+00
   4.384m  1.4583E+04  0.0000E+00  0.0000E+00  0.0000E+00  9.0000E+01  9.0000E+01  9.0000E+01  0.0000E+00 -1.2865E+00

  rolling -1.8910E+04  1.7400E+02 -2.4384E+04  5.0809E+03 -2.9464E+04  0.0000E+00  0.0000E+00  0.0000E+00  0.0000E+00
 averages -2.3208E+04  1.6016E+02  5.5271E+03 -1.1181E+05  2.9465E+04  0.0000E+00  0.0000E+00  0.0000E+00  0.0000E+00
           1.4566E+04  0.0000E+00  0.0000E+00  0.0000E+00  9.0000E+01  9.0000E+01  9.0000E+01  0.0000E+00 -1.1743E+00
 ------------------------------------------------------------------------------------------------------------------------
 ------------------------------------------------------------------------------------------------------------------------

     step     eng_tot    temp_tot     eng_cfg     eng_vdw     eng_cou     eng_bnd     eng_ang     eng_dih     eng_tet
 time          eng_pv    temp_rot     vir_cfg     vir_vdw     vir_cou     vir_bnd     vir_ang     vir_con     vir_tet
 cpu time      volume    temp_shl     eng_shl     vir_shl       alpha        beta       gamma     vir_pmf       press

 ------------------------------------------------------------------------------------------------------------------------
     2400 -1.8914E+04  1.8814E+02 -2.4294E+04  4.9482E+03 -2.9242E+04  0.0000E+00  0.0000E+00  0.0000E+00  0.0000E+00
   2.400p -2.3224E+04  1.7342E+02  6.5785E+03 -1.0971E+05  2.9242E+04  0.0000E+00  0.0000E+00  0.0000E+00  0.0000E+00
   4.574m  1.4647E+04  0.0000E+00  0.0000E+00  0.0000E+00  9.0000E+01  9.0000E+01  9.0000E+01  0.0000E+00 -1.4890E+00

  rolling -1.8913E+04  1.8381E+02 -2.4326E+04  5.1242E+03 -2.9451E+04  0.0000E+00  0.0000E+00  0.0000E+00  0.0000E+00
 averages -2.2755E+04  1.6679E+02  4.8816E+03 -1.1233E+05  2.9451E+04  0.0000E+00  0.0000E+00  0.0000E+00  0.0000E+00
           1.4581E+04  0.0000E+00  0.0000E+00  0.0000E+00  9.0000E+01  9.0000E+01  9.0000E+01  0.0000E+00 -8.6922E-01
 ------------------------------------------------------------------------------------------------------------------------
     2500 -1.8912E+04  1.7882E+02 -2.4327E+04  5.1361E+03 -2.9463E+04  0.0000E+00  0.0000E+00  0.0000E+00  0.0000E+00
   2.500p -2.2851E+04  1.6700E+02  4.8465E+03 -1.1265E+05  2.9464E+04  0.0000E+00  0.0000E+00  0.0000E+00  0.0000E+00
   4.764m  1.4488E+04  0.0000E+00  0.0000E+00  0.0000E+00  9.0000E+01  9.0000E+01  9.0000E+01  0.0000E+00 -9.1115E-01

  rolling -1.8914E+04  1.7958E+02 -2.4270E+04  4.9103E+03 -2.9181E+04  0.0000E+00  0.0000E+00  0.0000E+00  0.0000E+00
 averages -2.3349E+04  1.6674E+02  6.5606E+03 -1.0919E+05  2.9181E+04  0.0000E+00  0.0000E+00  0.0000E+00  0.0000E+00
           1.4626E+04  0.0000E+00  0.0000E+00  0.0000E+00  9.0000E+01  9.0000E+01  9.0000E+01  0.0000E+00 -1.5333E+00
 ------------------------------------------------------------------------------------------------------------------------
     2600 -1.8910E+04  1.7877E+02 -2.4407E+04  5.0699E+03 -2.9477E+04  0.0000E+00  0.0000E+00  0.0000E+00  0.0000E+00
   2.600p -2.3234E+04  1.6917E+02  5.7237E+03 -1.1198E+05  2.9478E+04  0.0000E+00  0.0000E+00  0.0000E+00  0.0000E+00
   4.955m  1.4425E+04  0.0000E+00  0.0000E+00  0.0000E+00  9.0000E+01  9.0000E+01  9.0000E+01  0.0000E+00 -1.2582E+00

  rolling -1.8911E+04  1.7971E+02 -2.4381E+04  5.2170E+03 -2.9598E+04  0.0000E+00  0.0000E+00  0.0000E+00  0.0000E+00
 averages -2.2655E+04  1.6605E+02  4.1668E+03 -1.1410E+05  2.9598E+04  0.0000E+00  0.0000E+00  0.0000E+00  0.0000E+00
           1.4393E+04  0.0000E+00  0.0000E+00  0.0000E+00  9.0000E+01  9.0000E+01  9.0000E+01  0.0000E+00 -6.4529E-01
 ------------------------------------------------------------------------------------------------------------------------
     2700 -1.8913E+04  1.7585E+02 -2.4319E+04  4.9844E+03 -2.9303E+04  0.0000E+00  0.0000E+00  0.0000E+00  0.0000E+00
   2.700p -2.3329E+04  1.6482E+02  6.1439E+03 -1.1069E+05  2.9304E+04  0.0000E+00  0.0000E+00  0.0000E+00  0.0000E+00
   5.145m  1.4467E+04  0.0000E+00  0.0000E+00  0.0000E+00  9.0000E+01  9.0000E+01  9.0000E+01  0.0000E+00 -1.4205E+00

  rolling -1.8911E+04  1.7898E+02 -2.4386E+04  4.9730E+03 -2.9359E+04  0.0000E+00  0.0000E+00  0.0000E+00  0.0000E+00
 averages -2.3550E+04  1.6520E+02  6.8011E+03 -1.1041E+05  2.9360E+04  0.0000E+00  0.0000E+00  0.0000E+00  0.0000E+00
           1.4488E+04  0.0000E+00  0.0000E+00  0.0000E+00  9.0000E+01  9.0000E+01  9.0000E+01  0.0000E+00 -1.6375E+00
 ------------------------------------------------------------------------------------------------------------------------
     2800 -1.8908E+04  1.8482E+02 -2.4427E+04  4.9872E+03 -2.9414E+04  0.0000E+00  0.0000E+00  0.0000E+00  0.0000E+00
   2.800p -2.3361E+04  1.7014E+02  6.4196E+03 -1.1126E+05  2.9416E+04  0.0000E+00  0.0000E+00  0.0000E+00  0.0000E+00
   5.336m  1.4353E+04  0.0000E+00  0.0000E+00  0.0000E+00  9.0000E+01  9.0000E+01  9.0000E+01  0.0000E+00 -1.4753E+00

  rolling -1.8910E+04  1.8126E+02 -2.4370E+04  5.1300E+03 -2.9500E+04  0.0000E+00  0.0000E+00  0.0000E+00  0.0000E+00
 averages -2.2816E+04  1.6890E+02  4.7459E+03 -1.1304E+05  2.9501E+04  0.0000E+00  0.0000E+00  0.0000E+00  0.0000E+00
           1.4368E+04  0.0000E+00  0.0000E+00  0.0000E+00  9.0000E+01  9.0000E+01  9.0000E+01  0.0000E+00 -8.6475E-01
 ------------------------------------------------------------------------------------------------------------------------
     2900 -1.8911E+04  1.7459E+02 -2.4293E+04  5.0258E+03 -2.9318E+04  0.0000E+00  0.0000E+00  0.0000E+00  0.0000E+00
   2.900p -2.2754E+04  1.6920E+02  4.3617E+03 -1.1157E+05  2.9319E+04  0.0000E+00  0.0000E+00  0.0000E+00  0.0000E+00
   5.526m  1.4396E+04  0.0000E+00  0.0000E+00  0.0000E+00  9.0000E+01  9.0000E+01  9.0000E+01  0.0000E+00 -7.8449E-01

  rolling -1.8910E+04  1.7798E+02 -2.4356E+04  4.9416E+03 -2.9298E+04  0.0000E+00  0.0000E+00  0.0000E+00  0.0000E+00
 averages -2.3338E+04  1.6517E+02  6.1900E+03 -1.1045E+05  2.9299E+04  0.0000E+00  0.0000E+00  0.0000E+00  0.0000E+00
           1.4401E+04  0.0000E+00  0.0000E+00  0.0000E+00  9.0000E+01  9.0000E+01  9.0000E+01  0.0000E+00 -1.4253E+00
 ------------------------------------------------------------------------------------------------------------------------
     3000 -1.8908E+04  1.8138E+02 -2.4289E+04  4.9814E+03 -2.9271E+04  0.0000E+00  0.0000E+00  0.0000E+00  0.0000E+00
   3.000p -2.2828E+04  1.7099E+02  5.0023E+03 -1.1076E+05  2.9272E+04  0.0000E+00  0.0000E+00  0.0000E+00  0.0000E+00
   5.717m  1.4461E+04  0.0000E+00  0.0000E+00  0.0000E+00  9.0000E+01  9.0000E+01  9.0000E+01  0.0000E+00 -9.6614E-01

  rolling -1.8908E+04  1.8268E+02 -2.4313E+04  5.0974E+03 -2.9411E+04  0.0000E+00  0.0000E+00  0.0000E+00  0.0000E+00
 averages -2.2459E+04  1.6893E+02  3.9341E+03 -1.1259E+05  2.9413E+04  0.0000E+00  0.0000E+00  0.0000E+00  0.0000E+00
           1.4390E+04  0.0000E+00  0.0000E+00  0.0000E+00  9.0000E+01  9.0000E+01  9.0000E+01  0.0000E+00 -5.4266E-01
 ------------------------------------------------------------------------------------------------------------------------
     3100 -1.8912E+04  1.8579E+02 -2.4209E+04  4.9789E+03 -2.9188E+04  0.0000E+00  0.0000E+00  0.0000E+00  0.0000E+00
   3.100p -2.2116E+04  1.7356E+02  3.3584E+03 -1.1058E+05  2.9190E+04  0.0000E+00  0.0000E+00  0.0000E+00  0.0000E+00
   5.908m  1.4483E+04  0.0000E+00  0.0000E+00  0.0000E+00  9.0000E+01  9.0000E+01  9.0000E+01  0.0000E+00 -3.1454E-01

  rolling -1.8909E+04  1.7647E+02 -2.4199E+04  4.8593E+03 -2.9058E+04  0.0000E+00  0.0000E+00  0.0000E+00  0.0000E+00
 averages -2.2569E+04  1.6681E+02  4.2388E+03 -1.0887E+05  2.9059E+04  0.0000E+00  0.0000E+00  0.0000E+00  0.0000E+00
           1.4522E+04  0.0000E+00  0.0000E+00  0.0000E+00  9.0000E+01  9.0000E+01  9.0000E+01  0.0000E+00 -7.0194E-01
 ------------------------------------------------------------------------------------------------------------------------
 ------------------------------------------------------------------------------------------------------------------------

     step     eng_tot    temp_tot     eng_cfg     eng_vdw     eng_cou     eng_bnd     eng_ang     eng_dih     eng_tet
 time          eng_pv    temp_rot     vir_cfg     vir_vdw     vir_cou     vir_bnd     vir_ang     vir_con     vir_tet
 cpu time      volume    temp_shl     eng_shl     vir_shl       alpha        beta       gamma     vir_pmf       press

 ------------------------------------------------------------------------------------------------------------------------
     3200 -1.8913E+04  1.7742E+02 -2.4100E+04  4.8987E+03 -2.8999E+04  0.0000E+00  0.0000E+00  0.0000E+00  0.0000E+00
   3.200p -2.1478E+04  1.6688E+02  1.3219E+03 -1.0961E+05  2.9001E+04  0.0000E+00  0.0000E+00  0.0000E+00  0.0000E+00
   6.098m  1.4489E+04  0.0000E+00  0.0000E+00  0.0000E+00  9.0000E+01  9.0000E+01  9.0000E+01  0.0000E+00  4.0500E-01

  rolling -1.8912E+04  1.8378E+02 -2.4146E+04  5.0177E+03 -2.9164E+04  0.0000E+00  0.0000E+00  0.0000E+00  0.0000E+00
 averages -2.1405E+04  1.7350E+02  1.2831E+03 -1.1131E+05  2.9166E+04  0.0000E+00  0.0000E+00  0.0000E+00  0.0000E+00
           1.4447E+04  0.0000E+00  0.0000E+00  0.0000E+00  9.0000E+01  9.0000E+01  9.0000E+01  0.0000E+00  4.5071E-01
 ------------------------------------------------------------------------------------------------------------------------
     3300 -1.8907E+04  1.8817E+02 -2.4398E+04  5.0087E+03 -2.9407E+04  0.0000E+00  0.0000E+00  0.0000E+00  0.0000E+00
   3.300p -2.3297E+04  1.8453E+02  6.3464E+03 -1.1132E+05  2.9408E+04  0.0000E+00  0.0000E+00  0.0000E+00  0.0000E+00
   6.289m  1.4433E+04  0.0000E+00  0.0000E+00  0.0000E+00  9.0000E+01  9.0000E+01  9.0000E+01  0.0000E+00 -1.4767E+00

  rolling -1.8912E+04  1.8170E+02 -2.4228E+04  4.8457E+03 -2.9074E+04  0.0000E+00  0.0000E+00  0.0000E+00  0.0000E+00
 averages -2.2737E+04  1.7361E+02  4.9015E+03 -1.0886E+05  2.9075E+04  0.0000E+00  0.0000E+00  0.0000E+00  0.0000E+00
           1.4502E+04  0.0000E+00  0.0000E+00  0.0000E+00  9.0000E+01  9.0000E+01  9.0000E+01  0.0000E+00 -9.3560E-01
 ------------------------------------------------------------------------------------------------------------------------
     3400 -1.8905E+04  1.7770E+02 -2.4452E+04  5.0516E+03 -2.9504E+04  0.0000E+00  0.0000E+00  0.0000E+00  0.0000E+00
   3.400p -2.3197E+04  1.6759E+02  5.4281E+03 -1.1236E+05  2.9504E+04  0.0000E+00  0.0000E+00  0.0000E+00  0.0000E+00
   6.480m  1.4327E+04  0.0000E+00  0.0000E+00  0.0000E+00  9.0000E+01  9.0000E+01  9.0000E+01  0.0000E+00 -1.1568E+00

  rolling -1.8908E+04  1.7689E+02 -2.4379E+04  5.0615E+03 -2.9441E+04  0.0000E+00  0.0000E+00  0.0000E+00  0.0000E+00
 averages -2.2895E+04  1.6910E+02  4.6715E+03 -1.1234E+05  2.9441E+04  0.0000E+00  0.0000E+00  0.0000E+00  0.0000E+00
           1.4357E+04  0.0000E+00  0.0000E+00  0.0000E+00  9.0000E+01  9.0000E+01  9.0000E+01  0.0000E+00 -8.8208E-01
 ------------------------------------------------------------------------------------------------------------------------
     3500 -1.8911E+04  1.7498E+02 -2.4376E+04  4.8139E+03 -2.9190E+04  0.0000E+00  0.0000E+00  0.0000E+00  0.0000E+00
   3.500p -2.4026E+04  1.6829E+02  7.9649E+03 -1.0864E+05  2.9190E+04  0.0000E+00  0.0000E+00  0.0000E+00  0.0000E+00
   6.671m  1.4453E+04  0.0000E+00  0.0000E+00  0.0000E+00  9.0000E+01  9.0000E+01  9.0000E+01  0.0000E+00 -2.1353E+00

  rolling -1.8907E+04  1.7790E+02 -2.4444E+04  5.0721E+03 -2.9516E+04  0.0000E+00  0.0000E+00  0.0000E+00  0.0000E+00
 averages -2.3197E+04  1.6805E+02  5.4606E+03 -1.1246E+05  2.9517E+04  0.0000E+00  0.0000E+00  0.0000E+00  0.0000E+00
           1.4370E+04  0.0000E+00  0.0000E+00  0.0000E+00  9.0000E+01  9.0000E+01  9.0000E+01  0.0000E+00 -1.1651E+00
 ------------------------------------------------------------------------------------------------------------------------
     3600 -1.8914E+04  1.9189E+02 -2.4295E+04  5.0209E+03 -2.9316E+04  0.0000E+00  0.0000E+00  0.0000E+00  0.0000E+00
   3.600p -2.2399E+04  1.8663E+02  4.1719E+03 -1.1168E+05  2.9317E+04  0.0000E+00  0.0000E+00  0.0000E+00  0.0000E+00
   6.862m  1.4420E+04  0.0000E+00  0.0000E+00  0.0000E+00  9.0000E+01  9.0000E+01  9.0000E+01  0.0000E+00 -6.2843E-01

  rolling -1.8913E+04  1.7980E+02 -2.4298E+04  5.0125E+03 -2.9310E+04  0.0000E+00  0.0000E+00  0.0000E+00  0.0000E+00
 averages -2.2659E+04  1.7591E+02  4.3073E+03 -1.1144E+05  2.9311E+04  0.0000E+00  0.0000E+00  0.0000E+00  0.0000E+00
           1.4423E+04  0.0000E+00  0.0000E+00  0.0000E+00  9.0000E+01  9.0000E+01  9.0000E+01  0.0000E+00 -7.4287E-01
 ------------------------------------------------------------------------------------------------------------------------
     3700 -1.8915E+04  1.8056E+02 -2.4172E+04  4.7828E+03 -2.8955E+04  0.0000E+00  0.0000E+00  0.0000E+00  0.0000E+00
   3.700p -2.2349E+04  1.7475E+02  3.8162E+03 -1.0770E+05  2.8957E+04  0.0000E+00  0.0000E+00  0.0000E+00  0.0000E+00
   7.052m  1.4608E+04  0.0000E+00  0.0000E+00  0.0000E+00  9.0000E+01  9.0000E+01  9.0000E+01  0.0000E+00 -5.3874E-01

  rolling -1.8915E+04  1.8357E+02 -2.4172E+04  4.9173E+03 -2.9089E+04  0.0000E+00  0.0000E+00  0.0000E+00  0.0000E+00
 averages -2.1784E+04  1.7766E+02  2.2771E+03 -1.0983E+05  2.9091E+04  0.0000E+00  0.0000E+00  0.0000E+00  0.0000E+00
           1.4523E+04  0.0000E+00  0.0000E+00  0.0000E+00  9.0000E+01  9.0000E+01  9.0000E+01  0.0000E+00  5.2258E-02
 ------------------------------------------------------------------------------------------------------------------------
     3800 -1.8914E+04  1.8450E+02 -2.4290E+04  5.1657E+03 -2.9456E+04  0.0000E+00  0.0000E+00  0.0000E+00  0.0000E+00
   3.800p -2.2034E+04  1.8176E+02  2.6810E+03 -1.1311E+05  2.9457E+04  0.0000E+00  0.0000E+00  0.0000E+00  0.0000E+00
   7.242m  1.4517E+04  0.0000E+00  0.0000E+00  0.0000E+00  9.0000E+01  9.0000E+01  9.0000E+01  0.0000E+00 -1.1074E-01

  rolling -1.8914E+04  1.7975E+02 -2.4206E+04  4.9981E+03 -2.9204E+04  0.0000E+00  0.0000E+00  0.0000E+00  0.0000E+00
 averages -2.1968E+04  1.7696E+02  2.4939E+03 -1.1073E+05  2.9206E+04  0.0000E+00  0.0000E+00  0.0000E+00  0.0000E+00
           1.4558E+04  0.0000E+00  0.0000E+00  0.0000E+00  9.0000E+01  9.0000E+01  9.0000E+01  0.0000E+00 -6.2223E-02
 ------------------------------------------------------------------------------------------------------------------------
     3900 -1.8906E+04  1.8797E+02 -2.4482E+04  4.9928E+03 -2.9475E+04  0.0000E+00  0.0000E+00  0.0000E+00  0.0000E+00
   3.900p -2.3766E+04  1.8308E+02  7.5033E+03 -1.1076E+05  2.9476E+04  0.0000E+00  0.0000E+00  0.0000E+00  0.0000E+00
   7.432m  1.4516E+04  0.0000E+00  0.0000E+00  0.0000E+00  9.0000E+01  9.0000E+01  9.0000E+01  0.0000E+00 -1.8985E+00

  rolling -1.8913E+04  1.8065E+02 -2.4318E+04  4.9703E+03 -2.9289E+04  0.0000E+00  0.0000E+00  0.0000E+00  0.0000E+00
 averages -2.3019E+04  1.7470E+02  5.3939E+03 -1.1041E+05  2.9290E+04  0.0000E+00  0.0000E+00  0.0000E+00  0.0000E+00
           1.4544E+04  0.0000E+00  0.0000E+00  0.0000E+00  9.0000E+01  9.0000E+01  9.0000E+01  0.0000E+00 -1.1323E+00
 ------------------------------------------------------------------------------------------------------------------------
 ------------------------------------------------------------------------------------------------------------------------

     step     eng_tot    temp_tot     eng_cfg     eng_vdw     eng_cou     eng_bnd     eng_ang     eng_dih     eng_tet
 time          eng_pv    temp_rot     vir_cfg     vir_vdw     vir_cou     vir_bnd     vir_ang     vir_con     vir_tet
 cpu time      volume    temp_shl     eng_shl     vir_shl       alpha        beta       gamma     vir_pmf       press

 ------------------------------------------------------------------------------------------------------------------------
     4000 -1.8907E+04  1.7781E+02 -2.4474E+04  5.2038E+03 -2.9678E+04  0.0000E+00  0.0000E+00  0.0000E+00  0.0000E+00
   4.000p -2.3319E+04  1.7825E+02  5.6001E+03 -1.1389E+05  2.9679E+04  0.0000E+00  0.0000E+00  0.0000E+00  0.0000E+00
   7.623m  1.4451E+04  0.0000E+00  0.0000E+00  0.0000E+00  9.0000E+01  9.0000E+01  9.0000E+01  0.0000E+00 -1.2624E+00

  rolling -1.8908E+04  1.7670E+02 -2.4434E+04  5.1767E+03 -2.9611E+04  0.0000E+00  0.0000E+00  0.0000E+00  0.0000E+00
 averages -2.3188E+04  1.7113E+02  5.3499E+03 -1.1347E+05  2.9611E+04  0.0000E+00  0.0000E+00  0.0000E+00  0.0000E+00
           1.4445E+04  0.0000E+00  0.0000E+00  0.0000E+00  9.0000E+01  9.0000E+01  9.0000E+01  0.0000E+00 -1.1439E+00
 ------------------------------------------------------------------------------------------------------------------------
     4100 -1.8912E+04  1.7900E+02 -2.4323E+04  4.9589E+03 -2.9282E+04  0.0000E+00  0.0000E+00  0.0000E+00  0.0000E+00
   4.100p -2.3147E+04  1.7100E+02  5.7055E+03 -1.1008E+05  2.9283E+04  0.0000E+00  0.0000E+00  0.0000E+00  0.0000E+00
   7.814m  1.4582E+04  0.0000E+00  0.0000E+00  0.0000E+00  9.0000E+01  9.0000E+01  9.0000E+01  0.0000E+00 -1.2444E+00

  rolling -1.8909E+04  1.8109E+02 -2.4421E+04  5.0077E+03 -2.9429E+04  0.0000E+00  0.0000E+00  0.0000E+00  0.0000E+00
 averages -2.3654E+04  1.7297E+02  7.0432E+03 -1.1086E+05  2.9430E+04  0.0000E+00  0.0000E+00  0.0000E+00  0.0000E+00
           1.4549E+04  0.0000E+00  0.0000E+00  0.0000E+00  9.0000E+01  9.0000E+01  9.0000E+01  0.0000E+00 -1.7381E+00
 ------------------------------------------------------------------------------------------------------------------------
     4200 -1.8911E+04  1.7918E+02 -2.4274E+04  5.1739E+03 -2.9448E+04  0.0000E+00  0.0000E+00  0.0000E+00  0.0000E+00
   4.200p -2.1947E+04  1.7200E+02  2.2510E+03 -1.1324E+05  2.9449E+04  0.0000E+00  0.0000E+00  0.0000E+00  0.0000E+00
   8.005m  1.4505E+04  0.0000E+00  0.0000E+00  0.0000E+00  9.0000E+01  9.0000E+01  9.0000E+01  0.0000E+00  4.6917E-02

  rolling -1.8911E+04  1.8113E+02 -2.4312E+04  5.1153E+03 -2.9428E+04  0.0000E+00  0.0000E+00  0.0000E+00  0.0000E+00
 averages -2.2438E+04  1.7348E+02  3.7145E+03 -1.1243E+05  2.9429E+04  0.0000E+00  0.0000E+00  0.0000E+00  0.0000E+00
           1.4515E+04  0.0000E+00  0.0000E+00  0.0000E+00  9.0000E+01  9.0000E+01  9.0000E+01  0.0000E+00 -4.9186E-01
 ------------------------------------------------------------------------------------------------------------------------
     4300 -1.8908E+04  1.7103E+02 -2.4214E+04  4.9138E+03 -2.9128E+04  0.0000E+00  0.0000E+00  0.0000E+00  0.0000E+00
   4.300p -2.2320E+04  1.6862E+02  3.0750E+03 -1.0945E+05  2.9128E+04  0.0000E+00  0.0000E+00  0.0000E+00  0.0000E+00
   8.195m  1.4564E+04  0.0000E+00  0.0000E+00  0.0000E+00  9.0000E+01  9.0000E+01  9.0000E+01  0.0000E+00 -3.2415E-01

  rolling -1.8908E+04  1.7837E+02 -2.4292E+04  4.9532E+03 -2.9245E+04  0.0000E+00  0.0000E+00  0.0000E+00  0.0000E+00
 averages -2.2895E+04  1.7455E+02  4.9585E+03 -1.0996E+05  2.9246E+04  0.0000E+00  0.0000E+00  0.0000E+00  0.0000E+00
           1.4577E+04  0.0000E+00  0.0000E+00  0.0000E+00  9.0000E+01  9.0000E+01  9.0000E+01  0.0000E+00 -9.8679E-01
 ------------------------------------------------------------------------------------------------------------------------
     4400 -1.8908E+04  1.8060E+02 -2.4187E+04  5.0046E+03 -2.9191E+04  0.0000E+00  0.0000E+00  0.0000E+00  0.0000E+00
   4.400p -2.1467E+04  1.7628E+02  1.1111E+03 -1.1132E+05  2.9192E+04  0.0000E+00  0.0000E+00  0.0000E+00  0.0000E+00
   8.386m  1.4416E+04  0.0000E+00  0.0000E+00  0.0000E+00  9.0000E+01  9.0000E+01  9.0000E+01  0.0000E+00  4.7219E-01

  rolling -1.8907E+04  1.8108E+02 -2.4253E+04  5.0804E+03 -2.9333E+04  0.0000E+00  0.0000E+00  0.0000E+00  0.0000E+00
 averages -2.1892E+04  1.7843E+02  2.1892E+03 -1.1216E+05  2.9334E+04  0.0000E+00  0.0000E+00  0.0000E+00  0.0000E+00
           1.4450E+04  0.0000E+00  0.0000E+00  0.0000E+00  9.0000E+01  9.0000E+01  9.0000E+01  0.0000E+00  5.8688E-02
 ------------------------------------------------------------------------------------------------------------------------
     4500 -1.8909E+04  1.8600E+02 -2.4297E+04  4.9398E+03 -2.9237E+04  0.0000E+00  0.0000E+00  0.0000E+00  0.0000E+00
   4.500p -2.2682E+04  1.8335E+02  4.6775E+03 -1.1053E+05  2.9237E+04  0.0000E+00  0.0000E+00  0.0000E+00  0.0000E+00
   8.576m  1.4410E+04  0.0000E+00  0.0000E+00  0.0000E+00  9.0000E+01  9.0000E+01  9.0000E+01  0.0000E+00 -8.6170E-01

  rolling -1.8909E+04  1.8093E+02 -2.4209E+04  4.8972E+03 -2.9106E+04  0.0000E+00  0.0000E+00  0.0000E+00  0.0000E+00
 averages -2.1978E+04  1.7477E+02  2.6188E+03 -1.0987E+05  2.9106E+04  0.0000E+00  0.0000E+00  0.0000E+00  0.0000E+00
           1.4430E+04  0.0000E+00  0.0000E+00  0.0000E+00  9.0000E+01  9.0000E+01  9.0000E+01  0.0000E+00 -8.8580E-02
 ------------------------------------------------------------------------------------------------------------------------
     4600 -1.8904E+04  1.9213E+02 -2.4402E+04  4.8937E+03 -2.9295E+04  0.0000E+00  0.0000E+00  0.0000E+00  0.0000E+00
   4.600p -2.3660E+04  1.8433E+02  7.6763E+03 -1.0968E+05  2.9297E+04  0.0000E+00  0.0000E+00  0.0000E+00  0.0000E+00
   8.767m  1.4434E+04  0.0000E+00  0.0000E+00  0.0000E+00  9.0000E+01  9.0000E+01  9.0000E+01  0.0000E+00 -1.9407E+00

  rolling -1.8908E+04  1.7961E+02 -2.4242E+04  5.0353E+03 -2.9277E+04  0.0000E+00  0.0000E+00  0.0000E+00  0.0000E+00
 averages -2.1773E+04  1.7337E+02  1.8389E+03 -1.1172E+05  2.9277E+04  0.0000E+00  0.0000E+00  0.0000E+00  0.0000E+00
           1.4395E+04  0.0000E+00  0.0000E+00  0.0000E+00  9.0000E+01  9.0000E+01  9.0000E+01  0.0000E+00  2.0168E-01
 ------------------------------------------------------------------------------------------------------------------------
     4700 -1.8905E+04  1.7824E+02 -2.4396E+04  5.1567E+03 -2.9553E+04  0.0000E+00  0.0000E+00  0.0000E+00  0.0000E+00
   4.700p -2.3019E+04  1.7224E+02  5.0402E+03 -1.1325E+05  2.9554E+04  0.0000E+00  0.0000E+00  0.0000E+00  0.0000E+00
   8.957m  1.4419E+04  0.0000E+00  0.0000E+00  0.0000E+00  9.0000E+01  9.0000E+01  9.0000E+01  0.0000E+00 -1.0198E+00

  rolling -1.8907E+04  1.8056E+02 -2.4341E+04  4.9978E+03 -2.9339E+04  0.0000E+00  0.0000E+00  0.0000E+00  0.0000E+00
 averages -2.3002E+04  1.7459E+02  5.2697E+03 -1.1105E+05  2.9340E+04  0.0000E+00  0.0000E+00  0.0000E+00  0.0000E+00
           1.4441E+04  0.0000E+00  0.0000E+00  0.0000E+00  9.0000E+01  9.0000E+01  9.0000E+01  0.0000E+00 -1.0939E+00
 ------------------------------------------------------------------------------------------------------------------------
 ------------------------------------------------------------------------------------------------------------------------

     step     eng_tot    temp_tot     eng_cfg     eng_vdw     eng_cou     eng_bnd     eng_ang     eng_dih     eng_tet
 time          eng_pv    temp_rot     vir_cfg     vir_vdw     vir_cou     vir_bnd     vir_ang     vir_con     vir_tet
 cpu time      volume    temp_shl     eng_shl     vir_shl       alpha        beta       gamma     vir_pmf       press

 ------------------------------------------------------------------------------------------------------------------------
     4800 -1.8890E+04  1.8168E+02 -2.4630E+04  5.0536E+03 -2.9683E+04  0.0000E+00  0.0000E+00  0.0000E+00  0.0000E+00
   4.800p -2.4021E+04  1.7749E+02  7.4982E+03 -1.1205E+05  2.9685E+04  0.0000E+00  0.0000E+00  0.0000E+00  0.0000E+00
   9.148m  1.4380E+04  0.0000E+00  0.0000E+00  0.0000E+00  9.0000E+01  9.0000E+01  9.0000E+01  0.0000E+00 -1.9484E+00

  rolling -1.8898E+04  1.8142E+02 -2.4518E+04  5.0599E+03 -2.9578E+04  0.0000E+00  0.0000E+00  0.0000E+00  0.0000E+00
 averages -2.3998E+04  1.7414E+02  7.7888E+03 -1.1195E+05  2.9580E+04  0.0000E+00  0.0000E+00  0.0000E+00  0.0000E+00
           1.4421E+04  0.0000E+00  0.0000E+00  0.0000E+00  9.0000E+01  9.0000E+01  9.0000E+01  0.0000E+00 -2.0393E+00
 ------------------------------------------------------------------------------------------------------------------------
     4900 -1.8898E+04  1.6878E+02 -2.4495E+04  5.2692E+03 -2.9764E+04  0.0000E+00  0.0000E+00  0.0000E+00  0.0000E+00
   4.900p -2.3497E+04  1.6571E+02  5.6560E+03 -1.1494E+05  2.9766E+04  0.0000E+00  0.0000E+00  0.0000E+00  0.0000E+00
   9.339m  1.4360E+04  0.0000E+00  0.0000E+00  0.0000E+00  9.0000E+01  9.0000E+01  9.0000E+01  0.0000E+00 -1.3183E+00

  rolling -1.8893E+04  1.7452E+02 -2.4595E+04  5.2429E+03 -2.9838E+04  0.0000E+00  0.0000E+00  0.0000E+00  0.0000E+00
 averages -2.3581E+04  1.6791E+02  5.9475E+03 -1.1476E+05  2.9840E+04  0.0000E+00  0.0000E+00  0.0000E+00  0.0000E+00
           1.4328E+04  0.0000E+00  0.0000E+00  0.0000E+00  9.0000E+01  9.0000E+01  9.0000E+01  0.0000E+00 -1.3870E+00
 ------------------------------------------------------------------------------------------------------------------------
     5000 -1.8902E+04  1.9097E+02 -2.4331E+04  5.0517E+03 -2.9382E+04  0.0000E+00  0.0000E+00  0.0000E+00  0.0000E+00
   5.000p -2.2608E+04  1.8603E+02  4.6392E+03 -1.1153E+05  2.9383E+04  0.0000E+00  0.0000E+00  0.0000E+00  0.0000E+00
   9.530m  1.4518E+04  0.0000E+00  0.0000E+00  0.0000E+00  9.0000E+01  9.0000E+01  9.0000E+01  0.0000E+00 -8.0597E-01

  rolling -1.8902E+04  1.7987E+02 -2.4413E+04  5.0051E+03 -2.9418E+04  0.0000E+00  0.0000E+00  0.0000E+00  0.0000E+00
 averages -2.3548E+04  1.7392E+02  6.6575E+03 -1.1105E+05  2.9420E+04  0.0000E+00  0.0000E+00  0.0000E+00  0.0000E+00
           1.4471E+04  0.0000E+00  0.0000E+00  0.0000E+00  9.0000E+01  9.0000E+01  9.0000E+01  0.0000E+00 -1.6198E+00
 ------------------------------------------------------------------------------------------------------------------------
     5100 -1.8898E+04  1.8668E+02 -2.4420E+04  4.8278E+03 -2.9248E+04  0.0000E+00  0.0000E+00  0.0000E+00  0.0000E+00
   5.100p -2.4306E+04  1.7479E+02  9.3363E+03 -1.0810E+05  2.9249E+04  0.0000E+00  0.0000E+00  0.0000E+00  0.0000E+00
   9.721m  1.4675E+04  0.0000E+00  0.0000E+00  0.0000E+00  9.0000E+01  9.0000E+01  9.0000E+01  0.0000E+00 -2.5332E+00

  rolling -1.8901E+04  1.8829E+02 -2.4297E+04  5.0602E+03 -2.9357E+04  0.0000E+00  0.0000E+00  0.0000E+00  0.0000E+00
 averages -2.2286E+04  1.8045E+02  3.6727E+03 -1.1144E+05  2.9359E+04  0.0000E+00  0.0000E+00  0.0000E+00  0.0000E+00
           1.4581E+04  0.0000E+00  0.0000E+00  0.0000E+00  9.0000E+01  9.0000E+01  9.0000E+01  0.0000E+00 -4.3703E-01
 ------------------------------------------------------------------------------------------------------------------------
     5200 -1.8883E+04  1.6701E+02 -2.4650E+04  5.4303E+03 -3.0080E+04  0.0000E+00  0.0000E+00  0.0000E+00  0.0000E+00
   5.200p -2.3401E+04  1.5955E+02  4.8710E+03 -1.1714E+05  3.0081E+04  0.0000E+00  0.0000E+00  0.0000E+00  0.0000E+00
   9.911m  1.4401E+04  0.0000E+00  0.0000E+00  0.0000E+00  9.0000E+01  9.0000E+01  9.0000E+01  0.0000E+00 -1.0041E+00

  rolling -1.8888E+04  1.7631E+02 -2.4573E+04  5.0975E+03 -2.9670E+04  0.0000E+00  0.0000E+00  0.0000E+00  0.0000E+00
 averages -2.4326E+04  1.7110E+02  8.3230E+03 -1.1208E+05  2.9671E+04  0.0000E+00  0.0000E+00  0.0000E+00  0.0000E+00
           1.4565E+04  0.0000E+00  0.0000E+00  0.0000E+00  9.0000E+01  9.0000E+01  9.0000E+01  0.0000E+00 -2.2496E+00
 ------------------------------------------------------------------------------------------------------------------------
     5300 -1.8887E+04  1.7695E+02 -2.4590E+04  4.8147E+03 -2.9405E+04  0.0000E+00  0.0000E+00  0.0000E+00  0.0000E+00
   5.300p -2.5358E+04  1.6392E+02  1.1500E+04 -1.0807E+05  2.9406E+04  0.0000E+00  0.0000E+00  0.0000E+00  0.0000E+00
  10.101m  1.4644E+04  0.0000E+00  0.0000E+00  0.0000E+00  9.0000E+01  9.0000E+01  9.0000E+01  0.0000E+00 -3.3867E+00

  rolling -1.8881E+04  1.7416E+02 -2.4689E+04  5.3198E+03 -3.0009E+04  0.0000E+00  0.0000E+00  0.0000E+00  0.0000E+00
 averages -2.3543E+04  1.6509E+02  5.5634E+03 -1.1547E+05  3.0010E+04  0.0000E+00  0.0000E+00  0.0000E+00  0.0000E+00
           1.4465E+04  0.0000E+00  0.0000E+00  0.0000E+00  9.0000E+01  9.0000E+01  9.0000E+01  0.0000E+00 -1.2129E+00
 ------------------------------------------------------------------------------------------------------------------------
     5400 -1.8894E+04  1.8409E+02 -2.4479E+04  5.3777E+03 -2.9857E+04  0.0000E+00  0.0000E+00  0.0000E+00  0.0000E+00
   5.400p -2.3033E+04  1.7667E+02  5.1504E+03 -1.1606E+05  2.9857E+04  0.0000E+00  0.0000E+00  0.0000E+00  0.0000E+00
  10.291m  1.4468E+04  0.0000E+00  0.0000E+00  0.0000E+00  9.0000E+01  9.0000E+01  9.0000E+01  0.0000E+00 -1.0230E+00

  rolling -1.8889E+04  1.8517E+02 -2.4544E+04  5.0661E+03 -2.9610E+04  0.0000E+00  0.0000E+00  0.0000E+00  0.0000E+00
 averages -2.4314E+04  1.7638E+02  8.8703E+03 -1.1155E+05  2.9611E+04  0.0000E+00  0.0000E+00  0.0000E+00  0.0000E+00
           1.4587E+04  0.0000E+00  0.0000E+00  0.0000E+00  9.0000E+01  9.0000E+01  9.0000E+01  0.0000E+00 -2.3920E+00
 ------------------------------------------------------------------------------------------------------------------------
     5500 -1.8882E+04  1.8250E+02 -2.4667E+04  5.1193E+03 -2.9786E+04  0.0000E+00  0.0000E+00  0.0000E+00  0.0000E+00
   5.500p -2.4303E+04  1.7305E+02  8.3397E+03 -1.1226E+05  2.9787E+04  0.0000E+00  0.0000E+00  0.0000E+00  0.0000E+00
  10.481m  1.4581E+04  0.0000E+00  0.0000E+00  0.0000E+00  9.0000E+01  9.0000E+01  9.0000E+01  0.0000E+00 -2.2078E+00

  rolling -1.8890E+04  1.7983E+02 -2.4542E+04  5.1886E+03 -2.9731E+04  0.0000E+00  0.0000E+00  0.0000E+00  0.0000E+00
 averages -2.3992E+04  1.7509E+02  7.5855E+03 -1.1344E+05  2.9732E+04  0.0000E+00  0.0000E+00  0.0000E+00  0.0000E+00
           1.4515E+04  0.0000E+00  0.0000E+00  0.0000E+00  9.0000E+01  9.0000E+01  9.0000E+01  0.0000E+00 -1.9684E+00
 ------------------------------------------------------------------------------------------------------------------------
 ------------------------------------------------------------------------------------------------------------------------

     step     eng_tot    temp_tot     eng_cfg     eng_vdw     eng_cou     eng_bnd     eng_ang     eng_dih     eng_tet
 time          eng_pv    temp_rot     vir_cfg     vir_vdw     vir_cou     vir_bnd     vir_ang     vir_con     vir_tet
 cpu time      volume    temp_shl     eng_shl     vir_shl       alpha        beta       gamma     vir_pmf       press

 ------------------------------------------------------------------------------------------------------------------------
     5600 -1.8885E+04  1.7891E+02 -2.4638E+04  5.2387E+03 -2.9877E+04  0.0000E+00  0.0000E+00  0.0000E+00  0.0000E+00
   5.600p -2.3855E+04  1.7717E+02  6.8031E+03 -1.1427E+05  2.9876E+04  0.0000E+00  0.0000E+00  0.0000E+00  0.0000E+00
  10.671m  1.4481E+04  0.0000E+00  0.0000E+00  0.0000E+00  9.0000E+01  9.0000E+01  9.0000E+01  0.0000E+00 -1.6978E+00

  rolling -1.8885E+04  1.7620E+02 -2.4632E+04  5.1725E+03 -2.9805E+04  0.0000E+00  0.0000E+00  0.0000E+00  0.0000E+00
 averages -2.4205E+04  1.6990E+02  7.7876E+03 -1.1308E+05  2.9806E+04  0.0000E+00  0.0000E+00  0.0000E+00  0.0000E+00
           1.4547E+04  0.0000E+00  0.0000E+00  0.0000E+00  9.0000E+01  9.0000E+01  9.0000E+01  0.0000E+00 -2.0501E+00
 ------------------------------------------------------------------------------------------------------------------------
     5700 -1.8892E+04  1.8129E+02 -2.4458E+04  5.1364E+03 -2.9595E+04  0.0000E+00  0.0000E+00  0.0000E+00  0.0000E+00
   5.700p -2.3289E+04  1.7433E+02  5.8314E+03 -1.1253E+05  2.9597E+04  0.0000E+00  0.0000E+00  0.0000E+00  0.0000E+00
  10.861m  1.4565E+04  0.0000E+00  0.0000E+00  0.0000E+00  9.0000E+01  9.0000E+01  9.0000E+01  0.0000E+00 -1.2871E+00

  rolling -1.8889E+04  1.8269E+02 -2.4556E+04  5.2421E+03 -2.9798E+04  0.0000E+00  0.0000E+00  0.0000E+00  0.0000E+00
 averages -2.3569E+04  1.7794E+02  6.4220E+03 -1.1423E+05  2.9799E+04  0.0000E+00  0.0000E+00  0.0000E+00  0.0000E+00
           1.4491E+04  0.0000E+00  0.0000E+00  0.0000E+00  9.0000E+01  9.0000E+01  9.0000E+01  0.0000E+00 -1.5205E+00
 ------------------------------------------------------------------------------------------------------------------------
     5800 -1.8884E+04  1.7922E+02 -2.4486E+04  5.1577E+03 -2.9644E+04  0.0000E+00  0.0000E+00  0.0000E+00  0.0000E+00
   5.800p -2.3003E+04  1.7865E+02  4.7023E+03 -1.1285E+05  2.9646E+04  0.0000E+00  0.0000E+00  0.0000E+00  0.0000E+00
  11.052m  1.4562E+04  0.0000E+00  0.0000E+00  0.0000E+00  9.0000E+01  9.0000E+01  9.0000E+01  0.0000E+00 -9.0437E-01

  rolling -1.8888E+04  1.8122E+02 -2.4466E+04  4.9974E+03 -2.9463E+04  0.0000E+00  0.0000E+00  0.0000E+00  0.0000E+00
 averages -2.3601E+04  1.7627E+02  6.7158E+03 -1.1051E+05  2.9466E+04  0.0000E+00  0.0000E+00  0.0000E+00  0.0000E+00
           1.4621E+04  0.0000E+00  0.0000E+00  0.0000E+00  9.0000E+01  9.0000E+01  9.0000E+01  0.0000E+00 -1.6219E+00
 ------------------------------------------------------------------------------------------------------------------------
     5900 -1.8884E+04  1.7813E+02 -2.4552E+04  5.1576E+03 -2.9709E+04  0.0000E+00  0.0000E+00  0.0000E+00  0.0000E+00
   5.900p -2.3558E+04  1.7430E+02  6.1573E+03 -1.1298E+05  2.9710E+04  0.0000E+00  0.0000E+00  0.0000E+00  0.0000E+00
  11.242m  1.4508E+04  0.0000E+00  0.0000E+00  0.0000E+00  9.0000E+01  9.0000E+01  9.0000E+01  0.0000E+00 -1.4451E+00

  rolling -1.8882E+04  1.7906E+02 -2.4526E+04  5.2457E+03 -2.9771E+04  0.0000E+00  0.0000E+00  0.0000E+00  0.0000E+00
 averages -2.2863E+04  1.7339E+02  4.2205E+03 -1.1426E+05  2.9773E+04  0.0000E+00  0.0000E+00  0.0000E+00  0.0000E+00
           1.4494E+04  0.0000E+00  0.0000E+00  0.0000E+00  9.0000E+01  9.0000E+01  9.0000E+01  0.0000E+00 -7.0323E-01
 ------------------------------------------------------------------------------------------------------------------------
     6000 -1.8888E+04  1.7998E+02 -2.4534E+04  5.1473E+03 -2.9681E+04  0.0000E+00  0.0000E+00  0.0000E+00  0.0000E+00
   6.000p -2.3860E+04  1.7165E+02  7.2675E+03 -1.1273E+05  2.9681E+04  0.0000E+00  0.0000E+00  0.0000E+00  0.0000E+00
  11.432m  1.4543E+04  0.0000E+00  0.0000E+00  0.0000E+00  9.0000E+01  9.0000E+01  9.0000E+01  0.0000E+00 -1.8282E+00

  rolling -1.8885E+04  1.7985E+02 -2.4556E+04  5.1135E+03 -2.9670E+04  0.0000E+00  0.0000E+00  0.0000E+00  0.0000E+00
 averages -2.3817E+04  1.7331E+02  7.0409E+03 -1.1229E+05  2.9671E+04  0.0000E+00  0.0000E+00  0.0000E+00  0.0000E+00
           1.4543E+04  0.0000E+00  0.0000E+00  0.0000E+00  9.0000E+01  9.0000E+01  9.0000E+01  0.0000E+00 -1.7522E+00
 ------------------------------------------------------------------------------------------------------------------------
     6100 -1.8888E+04  1.7540E+02 -2.4543E+04  5.2375E+03 -2.9780E+04  0.0000E+00  0.0000E+00  0.0000E+00  0.0000E+00
   6.100p -2.3892E+04  1.6904E+02  7.0794E+03 -1.1383E+05  2.9781E+04  0.0000E+00  0.0000E+00  0.0000E+00  0.0000E+00
  11.624m  1.4554E+04  0.0000E+00  0.0000E+00  0.0000E+00  9.0000E+01  9.0000E+01  9.0000E+01  0.0000E+00 -1.7876E+00

  rolling -1.8886E+04  1.8095E+02 -2.4568E+04  5.2289E+03 -2.9797E+04  0.0000E+00  0.0000E+00  0.0000E+00  0.0000E+00
 averages -2.3833E+04  1.7504E+02  7.1018E+03 -1.1386E+05  2.9798E+04  0.0000E+00  0.0000E+00  0.0000E+00  0.0000E+00
           1.4530E+04  0.0000E+00  0.0000E+00  0.0000E+00  9.0000E+01  9.0000E+01  9.0000E+01  0.0000E+00 -1.7744E+00
 ------------------------------------------------------------------------------------------------------------------------
     6200 -1.8875E+04  1.8414E+02 -2.4706E+04  5.2425E+03 -2.9949E+04  0.0000E+00  0.0000E+00  0.0000E+00  0.0000E+00
   6.200p -2.4156E+04  1.8110E+02  7.7818E+03 -1.1382E+05  2.9950E+04  0.0000E+00  0.0000E+00  0.0000E+00  0.0000E+00
  11.814m  1.4584E+04  0.0000E+00  0.0000E+00  0.0000E+00  9.0000E+01  9.0000E+01  9.0000E+01  0.0000E+00 -2.0212E+00

  rolling -1.8881E+04  1.8057E+02 -2.4622E+04  5.1987E+03 -2.9821E+04  0.0000E+00  0.0000E+00  0.0000E+00  0.0000E+00
 averages -2.4214E+04  1.7285E+02  8.0874E+03 -1.1321E+05  2.9822E+04  0.0000E+00  0.0000E+00  0.0000E+00  0.0000E+00
           1.4587E+04  0.0000E+00  0.0000E+00  0.0000E+00  9.0000E+01  9.0000E+01  9.0000E+01  0.0000E+00 -2.1298E+00
 ------------------------------------------------------------------------------------------------------------------------
     6300 -1.8881E+04  1.7718E+02 -2.4612E+04  5.2502E+03 -2.9862E+04  0.0000E+00  0.0000E+00  0.0000E+00  0.0000E+00
   6.300p -2.4045E+04  1.6995E+02  7.4316E+03 -1.1417E+05  2.9863E+04  0.0000E+00  0.0000E+00  0.0000E+00  0.0000E+00
  12.003m  1.4540E+04  0.0000E+00  0.0000E+00  0.0000E+00  9.0000E+01  9.0000E+01  9.0000E+01  0.0000E+00 -1.9089E+00

  rolling -1.8878E+04  1.7754E+02 -2.4649E+04  5.2213E+03 -2.9870E+04  0.0000E+00  0.0000E+00  0.0000E+00  0.0000E+00
 averages -2.4227E+04  1.7211E+02  7.8627E+03 -1.1365E+05  2.9871E+04  0.0000E+00  0.0000E+00  0.0000E+00  0.0000E+00
           1.4565E+04  0.0000E+00  0.0000E+00  0.0000E+00  9.0000E+01  9.0000E+01  9.0000E+01  0.0000E+00 -2.0743E+00
 ------------------------------------------------------------------------------------------------------------------------
 ------------------------------------------------------------------------------------------------------------------------

     step     eng_tot    temp_tot     eng_cfg     eng_vdw     eng_cou     eng_bnd     eng_ang     eng_dih     eng_tet
 time          eng_pv    temp_rot     vir_cfg     vir_vdw     vir_cou     vir_bnd     vir_ang     vir_con     vir_tet
 cpu time      volume    temp_shl     eng_shl     vir_shl       alpha        beta       gamma     vir_pmf       press

 ------------------------------------------------------------------------------------------------------------------------
     6400 -1.8880E+04  1.8445E+02 -2.4627E+04  5.2318E+03 -2.9859E+04  0.0000E+00  0.0000E+00  0.0000E+00  0.0000E+00
   6.400p -2.4025E+04  1.7642E+02  7.7063E+03 -1.1395E+05  2.9861E+04  0.0000E+00  0.0000E+00  0.0000E+00  0.0000E+00
  12.194m  1.4540E+04  0.0000E+00  0.0000E+00  0.0000E+00  9.0000E+01  9.0000E+01  9.0000E+01  0.0000E+00 -1.9735E+00

  rolling -1.8880E+04  1.8249E+02 -2.4611E+04  5.2388E+03 -2.9850E+04  0.0000E+00  0.0000E+00  0.0000E+00  0.0000E+00
 averages -2.3944E+04  1.7429E+02  7.4158E+03 -1.1405E+05  2.9851E+04  0.0000E+00  0.0000E+00  0.0000E+00  0.0000E+00
           1.4530E+04  0.0000E+00  0.0000E+00  0.0000E+00  9.0000E+01  9.0000E+01  9.0000E+01  0.0000E+00 -1.8742E+00
 ------------------------------------------------------------------------------------------------------------------------
     6500 -1.8879E+04  1.6925E+02 -2.4619E+04  5.2282E+03 -2.9847E+04  0.0000E+00  0.0000E+00  0.0000E+00  0.0000E+00
   6.500p -2.4103E+04  1.6412E+02  7.1533E+03 -1.1403E+05  2.9846E+04  0.0000E+00  0.0000E+00  0.0000E+00  0.0000E+00
  12.384m  1.4498E+04  0.0000E+00  0.0000E+00  0.0000E+00  9.0000E+01  9.0000E+01  9.0000E+01  0.0000E+00 -1.8578E+00

  rolling -1.8878E+04  1.7840E+02 -2.4654E+04  5.1710E+03 -2.9825E+04  0.0000E+00  0.0000E+00  0.0000E+00  0.0000E+00
 averages -2.4334E+04  1.7131E+02  8.2342E+03 -1.1315E+05  2.9825E+04  0.0000E+00  0.0000E+00  0.0000E+00  0.0000E+00
           1.4542E+04  0.0000E+00  0.0000E+00  0.0000E+00  9.0000E+01  9.0000E+01  9.0000E+01  0.0000E+00 -2.2047E+00
 ------------------------------------------------------------------------------------------------------------------------
     6600 -1.8881E+04  1.8349E+02 -2.4526E+04  5.0681E+03 -2.9595E+04  0.0000E+00  0.0000E+00  0.0000E+00  0.0000E+00
   6.600p -2.3590E+04  1.7748E+02  6.6291E+03 -1.1209E+05  2.9594E+04  0.0000E+00  0.0000E+00  0.0000E+00  0.0000E+00
  12.574m  1.4434E+04  0.0000E+00  0.0000E+00  0.0000E+00  9.0000E+01  9.0000E+01  9.0000E+01  0.0000E+00 -1.5947E+00

  rolling -1.8878E+04  1.7789E+02 -2.4603E+04  5.1924E+03 -2.9795E+04  0.0000E+00  0.0000E+00  0.0000E+00  0.0000E+00
 averages -2.3859E+04  1.7101E+02  6.9319E+03 -1.1367E+05  2.9794E+04  0.0000E+00  0.0000E+00  0.0000E+00  0.0000E+00
           1.4457E+04  0.0000E+00  0.0000E+00  0.0000E+00  9.0000E+01  9.0000E+01  9.0000E+01  0.0000E+00 -1.7293E+00
 ------------------------------------------------------------------------------------------------------------------------
     6700 -1.8882E+04  1.8139E+02 -2.4519E+04  5.1163E+03 -2.9636E+04  0.0000E+00  0.0000E+00  0.0000E+00  0.0000E+00
   6.700p -2.3534E+04  1.7253E+02  6.4114E+03 -1.1267E+05  2.9637E+04  0.0000E+00  0.0000E+00  0.0000E+00  0.0000E+00
  12.765m  1.4453E+04  0.0000E+00  0.0000E+00  0.0000E+00  9.0000E+01  9.0000E+01  9.0000E+01  0.0000E+00 -1.5067E+00

  rolling -1.8881E+04  1.8513E+02 -2.4510E+04  5.1572E+03 -2.9667E+04  0.0000E+00  0.0000E+00  0.0000E+00  0.0000E+00
 averages -2.3169E+04  1.7890E+02  5.5019E+03 -1.1335E+05  2.9668E+04  0.0000E+00  0.0000E+00  0.0000E+00  0.0000E+00
           1.4416E+04  0.0000E+00  0.0000E+00  0.0000E+00  9.0000E+01  9.0000E+01  9.0000E+01  0.0000E+00 -1.1602E+00
 ------------------------------------------------------------------------------------------------------------------------
     6800 -1.8883E+04  1.6958E+02 -2.4511E+04  5.3087E+03 -2.9819E+04  0.0000E+00  0.0000E+00  0.0000E+00  0.0000E+00
   6.800p -2.3130E+04  1.6211E+02  4.6047E+03 -1.1526E+05  2.9820E+04  0.0000E+00  0.0000E+00  0.0000E+00  0.0000E+00
  12.955m  1.4463E+04  0.0000E+00  0.0000E+00  0.0000E+00  9.0000E+01  9.0000E+01  9.0000E+01  0.0000E+00 -8.8679E-01

  rolling -1.8881E+04  1.7671E+02 -2.4564E+04  5.0329E+03 -2.9597E+04  0.0000E+00  0.0000E+00  0.0000E+00  0.0000E+00
 averages -2.4198E+04  1.7315E+02  7.9648E+03 -1.1146E+05  2.9597E+04  0.0000E+00  0.0000E+00  0.0000E+00  0.0000E+00
           1.4496E+04  0.0000E+00  0.0000E+00  0.0000E+00  9.0000E+01  9.0000E+01  9.0000E+01  0.0000E+00 -2.1352E+00
 ------------------------------------------------------------------------------------------------------------------------
     6900 -1.8886E+04  1.7891E+02 -2.4447E+04  4.9975E+03 -2.9444E+04  0.0000E+00  0.0000E+00  0.0000E+00  0.0000E+00
   6.900p -2.3517E+04  1.7588E+02  6.3784E+03 -1.1069E+05  2.9445E+04  0.0000E+00  0.0000E+00  0.0000E+00  0.0000E+00
  13.146m  1.4560E+04  0.0000E+00  0.0000E+00  0.0000E+00  9.0000E+01  9.0000E+01  9.0000E+01  0.0000E+00 -1.5230E+00

  rolling -1.8882E+04  1.7968E+02 -2.4543E+04  5.1205E+03 -2.9663E+04  0.0000E+00  0.0000E+00  0.0000E+00  0.0000E+00
 averages -2.3835E+04  1.7675E+02  7.0821E+03 -1.1253E+05  2.9665E+04  0.0000E+00  0.0000E+00  0.0000E+00  0.0000E+00
           1.4516E+04  0.0000E+00  0.0000E+00  0.0000E+00  9.0000E+01  9.0000E+01  9.0000E+01  0.0000E+00 -1.7877E+00
 ------------------------------------------------------------------------------------------------------------------------
     7000 -1.8879E+04  1.7720E+02 -2.4496E+04  5.2348E+03 -2.9731E+04  0.0000E+00  0.0000E+00  0.0000E+00  0.0000E+00
   7.000p -2.2844E+04  1.7736E+02  4.0808E+03 -1.1470E+05  2.9732E+04  0.0000E+00  0.0000E+00  0.0000E+00  0.0000E+00
  13.337m  1.4355E+04  0.0000E+00  0.0000E+00  0.0000E+00  9.0000E+01  9.0000E+01  9.0000E+01  0.0000E+00 -6.9424E-01

  rolling -1.8881E+04  1.8216E+02 -2.4496E+04  5.0934E+03 -2.9590E+04  0.0000E+00  0.0000E+00  0.0000E+00  0.0000E+00
 averages -2.3401E+04  1.8021E+02  6.0335E+03 -1.1239E+05  2.9591E+04  0.0000E+00  0.0000E+00  0.0000E+00  0.0000E+00
           1.4456E+04  0.0000E+00  0.0000E+00  0.0000E+00  9.0000E+01  9.0000E+01  9.0000E+01  0.0000E+00 -1.3904E+00
 ------------------------------------------------------------------------------------------------------------------------
     7100 -1.8876E+04  1.9075E+02 -2.4574E+04  4.8912E+03 -2.9465E+04  0.0000E+00  0.0000E+00  0.0000E+00  0.0000E+00
   7.100p -2.4619E+04  1.8298E+02  9.9662E+03 -1.0957E+05  2.9466E+04  0.0000E+00  0.0000E+00  0.0000E+00  0.0000E+00
  13.529m  1.4495E+04  0.0000E+00  0.0000E+00  0.0000E+00  9.0000E+01  9.0000E+01  9.0000E+01  0.0000E+00 -2.8024E+00

  rolling -1.8881E+04  1.7712E+02 -2.4481E+04  5.1131E+03 -2.9594E+04  0.0000E+00  0.0000E+00  0.0000E+00  0.0000E+00
 averages -2.3261E+04  1.7763E+02  5.3698E+03 -1.1285E+05  2.9595E+04  0.0000E+00  0.0000E+00  0.0000E+00  0.0000E+00
           1.4411E+04  0.0000E+00  0.0000E+00  0.0000E+00  9.0000E+01  9.0000E+01  9.0000E+01  0.0000E+00 -1.1809E+00
 ------------------------------------------------------------------------------------------------------------------------
 ------------------------------------------------------------------------------------------------------------------------

     step     eng_tot    temp_tot     eng_cfg     eng_vdw     eng_cou     eng_bnd     eng_ang     eng_dih     eng_tet
 time          eng_pv    temp_rot     vir_cfg     vir_vdw     vir_cou     vir_bnd     vir_ang     vir_con     vir_tet
 cpu time      volume    temp_shl     eng_shl     vir_shl       alpha        beta       gamma     vir_pmf       press

 ------------------------------------------------------------------------------------------------------------------------
     7200 -1.8872E+04  1.7978E+02 -2.4590E+04  5.1859E+03 -2.9776E+04  0.0000E+00  0.0000E+00  0.0000E+00  0.0000E+00
   7.200p -2.3965E+04  1.8049E+02  7.2880E+03 -1.1389E+05  2.9777E+04  0.0000E+00  0.0000E+00  0.0000E+00  0.0000E+00
  13.719m  1.4353E+04  0.0000E+00  0.0000E+00  0.0000E+00  9.0000E+01  9.0000E+01  9.0000E+01  0.0000E+00 -1.9052E+00

  rolling -1.8876E+04  1.8547E+02 -2.4545E+04  5.0072E+03 -2.9552E+04  0.0000E+00  0.0000E+00  0.0000E+00  0.0000E+00
 averages -2.4101E+04  1.8150E+02  8.1828E+03 -1.1121E+05  2.9554E+04  0.0000E+00  0.0000E+00  0.0000E+00  0.0000E+00
           1.4452E+04  0.0000E+00  0.0000E+00  0.0000E+00  9.0000E+01  9.0000E+01  9.0000E+01  0.0000E+00 -2.1804E+00
 ------------------------------------------------------------------------------------------------------------------------
     7300 -1.8864E+04  1.7529E+02 -2.4689E+04  5.1096E+03 -2.9799E+04  0.0000E+00  0.0000E+00  0.0000E+00  0.0000E+00
   7.300p -2.4693E+04  1.6813E+02  9.0458E+03 -1.1264E+05  2.9801E+04  0.0000E+00  0.0000E+00  0.0000E+00  0.0000E+00
  13.911m  1.4402E+04  0.0000E+00  0.0000E+00  0.0000E+00  9.0000E+01  9.0000E+01  9.0000E+01  0.0000E+00 -2.5489E+00

  rolling -1.8867E+04  1.7541E+02 -2.4657E+04  5.2771E+03 -2.9934E+04  0.0000E+00  0.0000E+00  0.0000E+00  0.0000E+00
 averages -2.3974E+04  1.7430E+02  6.9155E+03 -1.1515E+05  2.9936E+04  0.0000E+00  0.0000E+00  0.0000E+00  0.0000E+00
           1.4326E+04  0.0000E+00  0.0000E+00  0.0000E+00  9.0000E+01  9.0000E+01  9.0000E+01  0.0000E+00 -1.7784E+00
 ------------------------------------------------------------------------------------------------------------------------
     7400 -1.8865E+04  1.8079E+02 -2.4609E+04  5.2350E+03 -2.9844E+04  0.0000E+00  0.0000E+00  0.0000E+00  0.0000E+00
   7.400p -2.3561E+04  1.7774E+02  6.1203E+03 -1.1458E+05  2.9845E+04  0.0000E+00  0.0000E+00  0.0000E+00  0.0000E+00
  14.101m  1.4325E+04  0.0000E+00  0.0000E+00  0.0000E+00  9.0000E+01  9.0000E+01  9.0000E+01  0.0000E+00 -1.4403E+00

  rolling -1.8863E+04  1.7887E+02 -2.4670E+04  5.0668E+03 -2.9736E+04  0.0000E+00  0.0000E+00  0.0000E+00  0.0000E+00
 averages -2.4519E+04  1.7486E+02  8.7251E+03 -1.1204E+05  2.9737E+04  0.0000E+00  0.0000E+00  0.0000E+00  0.0000E+00
           1.4408E+04  0.0000E+00  0.0000E+00  0.0000E+00  9.0000E+01  9.0000E+01  9.0000E+01  0.0000E+00 -2.4233E+00
 ------------------------------------------------------------------------------------------------------------------------
     7500 -1.8863E+04  1.8048E+02 -2.4546E+04  5.1100E+03 -2.9656E+04  0.0000E+00  0.0000E+00  0.0000E+00  0.0000E+00
   7.500p -2.3591E+04  1.8284E+02  6.3148E+03 -1.1268E+05  2.9657E+04  0.0000E+00  0.0000E+00  0.0000E+00  0.0000E+00
  14.293m  1.4401E+04  0.0000E+00  0.0000E+00  0.0000E+00  9.0000E+01  9.0000E+01  9.0000E+01  0.0000E+00 -1.5342E+00

  rolling -1.8863E+04  1.8248E+02 -2.4573E+04  5.2151E+03 -2.9789E+04  0.0000E+00  0.0000E+00  0.0000E+00  0.0000E+00
 averages -2.3202E+04  1.7798E+02  5.2532E+03 -1.1440E+05  2.9790E+04  0.0000E+00  0.0000E+00  0.0000E+00  0.0000E+00
           1.4319E+04  0.0000E+00  0.0000E+00  0.0000E+00  9.0000E+01  9.0000E+01  9.0000E+01  0.0000E+00 -1.0946E+00
 ------------------------------------------------------------------------------------------------------------------------
     7600 -1.8855E+04  1.8306E+02 -2.4704E+04  5.2414E+03 -2.9946E+04  0.0000E+00  0.0000E+00  0.0000E+00  0.0000E+00
   7.600p -2.4382E+04  1.7128E+02  8.5220E+03 -1.1433E+05  2.9946E+04  0.0000E+00  0.0000E+00  0.0000E+00  0.0000E+00
  14.483m  1.4423E+04  0.0000E+00  0.0000E+00  0.0000E+00  9.0000E+01  9.0000E+01  9.0000E+01  0.0000E+00 -2.2871E+00

  rolling -1.8860E+04  1.8155E+02 -2.4610E+04  5.0675E+03 -2.9678E+04  0.0000E+00  0.0000E+00  0.0000E+00  0.0000E+00
 averages -2.4349E+04  1.7646E+02  8.5426E+03 -1.1195E+05  2.9678E+04  0.0000E+00  0.0000E+00  0.0000E+00  0.0000E+00
           1.4448E+04  0.0000E+00  0.0000E+00  0.0000E+00  9.0000E+01  9.0000E+01  9.0000E+01  0.0000E+00 -2.3300E+00
 ------------------------------------------------------------------------------------------------------------------------
     7700 -1.8852E+04  1.7292E+02 -2.4744E+04  5.0782E+03 -2.9822E+04  0.0000E+00  0.0000E+00  0.0000E+00  0.0000E+00
   7.700p -2.5094E+04  1.6269E+02  1.0003E+04 -1.1205E+05  2.9824E+04  0.0000E+00  0.0000E+00  0.0000E+00  0.0000E+00
  14.673m  1.4476E+04  0.0000E+00  0.0000E+00  0.0000E+00  9.0000E+01  9.0000E+01  9.0000E+01  0.0000E+00 -2.8938E+00

  rolling -1.8852E+04  1.7719E+02 -2.4737E+04  5.2150E+03 -2.9952E+04  0.0000E+00  0.0000E+00  0.0000E+00  0.0000E+00
 averages -2.4604E+04  1.6772E+02  8.7646E+03 -1.1392E+05  2.9952E+04  0.0000E+00  0.0000E+00  0.0000E+00  0.0000E+00
           1.4447E+04  0.0000E+00  0.0000E+00  0.0000E+00  9.0000E+01  9.0000E+01  9.0000E+01  0.0000E+00 -2.4138E+00
 ------------------------------------------------------------------------------------------------------------------------
     7800 -1.8858E+04  1.8877E+02 -2.4667E+04  5.2804E+03 -2.9947E+04  0.0000E+00  0.0000E+00  0.0000E+00  0.0000E+00
   7.800p -2.3978E+04  1.7947E+02  7.6829E+03 -1.1495E+05  2.9947E+04  0.0000E+00  0.0000E+00  0.0000E+00  0.0000E+00
  14.864m  1.4418E+04  0.0000E+00  0.0000E+00  0.0000E+00  9.0000E+01  9.0000E+01  9.0000E+01  0.0000E+00 -1.9543E+00

  rolling -1.8856E+04  1.7901E+02 -2.4694E+04  5.2293E+03 -2.9923E+04  0.0000E+00  0.0000E+00  0.0000E+00  0.0000E+00
 averages -2.4452E+04  1.7120E+02  8.5069E+03 -1.1421E+05  2.9923E+04  0.0000E+00  0.0000E+00  0.0000E+00  0.0000E+00
           1.4432E+04  0.0000E+00  0.0000E+00  0.0000E+00  9.0000E+01  9.0000E+01  9.0000E+01  0.0000E+00 -2.3184E+00
 ------------------------------------------------------------------------------------------------------------------------
     7900 -1.8856E+04  1.8101E+02 -2.4655E+04  5.0910E+03 -2.9746E+04  0.0000E+00  0.0000E+00  0.0000E+00  0.0000E+00
   7.900p -2.4656E+04  1.7448E+02  9.3198E+03 -1.1218E+05  2.9747E+04  0.0000E+00  0.0000E+00  0.0000E+00  0.0000E+00
  15.054m  1.4461E+04  0.0000E+00  0.0000E+00  0.0000E+00  9.0000E+01  9.0000E+01  9.0000E+01  0.0000E+00 -2.6175E+00

  rolling -1.8860E+04  1.8342E+02 -2.4621E+04  5.0928E+03 -2.9714E+04  0.0000E+00  0.0000E+00  0.0000E+00  0.0000E+00
 averages -2.4494E+04  1.7458E+02  9.0915E+03 -1.1221E+05  2.9714E+04  0.0000E+00  0.0000E+00  0.0000E+00  0.0000E+00
           1.4470E+04  0.0000E+00  0.0000E+00  0.0000E+00  9.0000E+01  9.0000E+01  9.0000E+01  0.0000E+00 -2.5062E+00
 ------------------------------------------------------------------------------------------------------------------------
[...]
           1.5083E+04  0.0000E+00  0.0000E+00  0.0000E+00  9.0000E+01  9.0000E+01  9.0000E+01  0.0000E+00 -6.9152E+00
 ------------------------------------------------------------------------------------------------------------------------
    98500 -9.7662E+03  1.8450E+02 -2.5265E+04  5.6426E+03 -3.0907E+04  0.0000E+00  0.0000E+00  0.0000E+00  0.0000E+00
  98.500p -2.8226E+04  1.7337E+02  1.8438E+04 -1.1743E+05  3.0907E+04  0.0000E+00  0.0000E+00  0.0000E+00  0.0000E+00
   3.102h  1.5117E+04  0.0000E+00  0.0000E+00  0.0000E+00  9.0000E+01  9.0000E+01  9.0000E+01  0.0000E+00 -5.7615E+00

  rolling -9.7541E+03  1.8225E+02 -2.5316E+04  5.6984E+03 -3.1014E+04  0.0000E+00  0.0000E+00  0.0000E+00  0.0000E+00
 averages -2.8517E+04  1.7537E+02  1.8990E+04 -1.1822E+05  3.1015E+04  0.0000E+00  0.0000E+00  0.0000E+00  0.0000E+00
           1.5096E+04  0.0000E+00  0.0000E+00  0.0000E+00  9.0000E+01  9.0000E+01  9.0000E+01  0.0000E+00 -5.9992E+00
 ------------------------------------------------------------------------------------------------------------------------
    98600 -9.6947E+03  1.8457E+02 -2.5565E+04  5.8032E+03 -3.1368E+04  0.0000E+00  0.0000E+00  0.0000E+00  0.0000E+00
  98.600p -3.0031E+04  1.7832E+02  2.2896E+04 -1.1965E+05  3.1369E+04  0.0000E+00  0.0000E+00  0.0000E+00  0.0000E+00
   3.105h  1.5098E+04  0.0000E+00  0.0000E+00  0.0000E+00  9.0000E+01  9.0000E+01  9.0000E+01  0.0000E+00 -7.4042E+00

  rolling -9.7382E+03  1.8673E+02 -2.5388E+04  5.7834E+03 -3.1171E+04  0.0000E+00  0.0000E+00  0.0000E+00  0.0000E+00
 averages -2.9547E+04  1.7730E+02  2.2126E+04 -1.1935E+05  3.1172E+04  0.0000E+00  0.0000E+00  0.0000E+00  0.0000E+00
           1.5095E+04  0.0000E+00  0.0000E+00  0.0000E+00  9.0000E+01  9.0000E+01  9.0000E+01  0.0000E+00 -7.1025E+00
 ------------------------------------------------------------------------------------------------------------------------
    98700 -9.6907E+03  1.7393E+02 -2.5587E+04  5.9019E+03 -3.1489E+04  0.0000E+00  0.0000E+00  0.0000E+00  0.0000E+00
  98.700p -2.9441E+04  1.6981E+02  2.0488E+04 -1.2104E+05  3.1490E+04  0.0000E+00  0.0000E+00  0.0000E+00  0.0000E+00
   3.108h  1.5052E+04  0.0000E+00  0.0000E+00  0.0000E+00  9.0000E+01  9.0000E+01  9.0000E+01  0.0000E+00 -6.6117E+00

  rolling -9.6980E+03  1.6907E+02 -2.5549E+04  5.8333E+03 -3.1383E+04  0.0000E+00  0.0000E+00  0.0000E+00  0.0000E+00
 averages -3.0268E+04  1.6344E+02  2.2854E+04 -1.2007E+05  3.1383E+04  0.0000E+00  0.0000E+00  0.0000E+00  0.0000E+00
           1.5092E+04  0.0000E+00  0.0000E+00  0.0000E+00  9.0000E+01  9.0000E+01  9.0000E+01  0.0000E+00 -7.4659E+00
 ------------------------------------------------------------------------------------------------------------------------
    98800 -9.7298E+03  1.9453E+02 -2.5397E+04  5.5042E+03 -3.0901E+04  0.0000E+00  0.0000E+00  0.0000E+00  0.0000E+00
  98.800p -3.0591E+04  1.8551E+02  2.5621E+04 -1.1540E+05  3.0903E+04  0.0000E+00  0.0000E+00  0.0000E+00  0.0000E+00
   3.111h  1.5159E+04  0.0000E+00  0.0000E+00  0.0000E+00  9.0000E+01  9.0000E+01  9.0000E+01  0.0000E+00 -8.2979E+00

  rolling -9.7184E+03  1.8355E+02 -2.5458E+04  5.8343E+03 -3.1292E+04  0.0000E+00  0.0000E+00  0.0000E+00  0.0000E+00
 averages -2.9648E+04  1.7273E+02  2.2072E+04 -1.2006E+05  3.1293E+04  0.0000E+00  0.0000E+00  0.0000E+00  0.0000E+00
           1.5079E+04  0.0000E+00  0.0000E+00  0.0000E+00  9.0000E+01  9.0000E+01  9.0000E+01  0.0000E+00 -7.0978E+00
 ------------------------------------------------------------------------------------------------------------------------
    98900 -9.7288E+03  1.8570E+02 -2.5411E+04  5.9615E+03 -3.1373E+04  0.0000E+00  0.0000E+00  0.0000E+00  0.0000E+00
  98.900p -2.9529E+04  1.8397E+02  2.1851E+04 -1.2215E+05  3.1373E+04  0.0000E+00  0.0000E+00  0.0000E+00  0.0000E+00
   3.114h  1.4992E+04  0.0000E+00  0.0000E+00  0.0000E+00  9.0000E+01  9.0000E+01  9.0000E+01  0.0000E+00 -7.0916E+00

  rolling -9.7492E+03  1.8279E+02 -2.5316E+04  5.7608E+03 -3.1077E+04  0.0000E+00  0.0000E+00  0.0000E+00  0.0000E+00
 averages -2.8861E+04  1.7560E+02  2.0051E+04 -1.1917E+05  3.1078E+04  0.0000E+00  0.0000E+00  0.0000E+00  0.0000E+00
           1.5058E+04  0.0000E+00  0.0000E+00  0.0000E+00  9.0000E+01  9.0000E+01  9.0000E+01  0.0000E+00 -6.3925E+00
 ------------------------------------------------------------------------------------------------------------------------
    99000 -9.7026E+03  1.7856E+02 -2.5496E+04  5.7315E+03 -3.1228E+04  0.0000E+00  0.0000E+00  0.0000E+00  0.0000E+00
  99.000p -3.0606E+04  1.7733E+02  2.4455E+04 -1.1848E+05  3.1230E+04  0.0000E+00  0.0000E+00  0.0000E+00  0.0000E+00
   3.118h  1.5172E+04  0.0000E+00  0.0000E+00  0.0000E+00  9.0000E+01  9.0000E+01  9.0000E+01  0.0000E+00 -7.9798E+00

  rolling -9.7210E+03  1.7924E+02 -2.5432E+04  5.7323E+03 -3.1165E+04  0.0000E+00  0.0000E+00  0.0000E+00  0.0000E+00
 averages -3.0392E+04  1.7321E+02  2.4100E+04 -1.1866E+05  3.1165E+04  0.0000E+00  0.0000E+00  0.0000E+00  0.0000E+00
           1.5120E+04  0.0000E+00  0.0000E+00  0.0000E+00  9.0000E+01  9.0000E+01  9.0000E+01  0.0000E+00 -7.8522E+00
 ------------------------------------------------------------------------------------------------------------------------
    99100 -9.7099E+03  1.7782E+02 -2.5462E+04  5.8763E+03 -3.1338E+04  0.0000E+00  0.0000E+00  0.0000E+00  0.0000E+00
  99.100p -3.0257E+04  1.7100E+02  2.3547E+04 -1.2070E+05  3.1339E+04  0.0000E+00  0.0000E+00  0.0000E+00  0.0000E+00
   3.121h  1.5076E+04  0.0000E+00  0.0000E+00  0.0000E+00  9.0000E+01  9.0000E+01  9.0000E+01  0.0000E+00 -7.6793E+00

  rolling -9.7038E+03  1.7815E+02 -2.5486E+04  5.8859E+03 -3.1371E+04  0.0000E+00  0.0000E+00  0.0000E+00  0.0000E+00
 averages -3.0186E+04  1.7060E+02  2.3287E+04 -1.2080E+05  3.1373E+04  0.0000E+00  0.0000E+00  0.0000E+00  0.0000E+00
           1.5094E+04  0.0000E+00  0.0000E+00  0.0000E+00  9.0000E+01  9.0000E+01  9.0000E+01  0.0000E+00 -7.5710E+00
 ------------------------------------------------------------------------------------------------------------------------
 ------------------------------------------------------------------------------------------------------------------------

     step     eng_tot    temp_tot     eng_cfg     eng_vdw     eng_cou     eng_bnd     eng_ang     eng_dih     eng_tet
 time          eng_pv    temp_rot     vir_cfg     vir_vdw     vir_cou     vir_bnd     vir_ang     vir_con     vir_tet
 cpu time      volume    temp_shl     eng_shl     vir_shl       alpha        beta       gamma     vir_pmf       press

 ------------------------------------------------------------------------------------------------------------------------
    99200 -9.7111E+03  1.8305E+02 -2.5459E+04  5.8219E+03 -3.1281E+04  0.0000E+00  0.0000E+00  0.0000E+00  0.0000E+00
  99.200p -3.0386E+04  1.7463E+02  2.4226E+04 -1.1987E+05  3.1283E+04  0.0000E+00  0.0000E+00  0.0000E+00  0.0000E+00
   3.124h  1.5087E+04  0.0000E+00  0.0000E+00  0.0000E+00  9.0000E+01  9.0000E+01  9.0000E+01  0.0000E+00 -7.8879E+00

  rolling -9.7121E+03  1.8032E+02 -2.5458E+04  5.7798E+03 -3.1237E+04  0.0000E+00  0.0000E+00  0.0000E+00  0.0000E+00
 averages -3.0496E+04  1.7322E+02  2.4405E+04 -1.1927E+05  3.1239E+04  0.0000E+00  0.0000E+00  0.0000E+00  0.0000E+00
           1.5106E+04  0.0000E+00  0.0000E+00  0.0000E+00  9.0000E+01  9.0000E+01  9.0000E+01  0.0000E+00 -7.9614E+00
 ------------------------------------------------------------------------------------------------------------------------
    99300 -9.7052E+03  1.7894E+02 -2.5481E+04  5.7498E+03 -3.1231E+04  0.0000E+00  0.0000E+00  0.0000E+00  0.0000E+00
  99.300p -3.0745E+04  1.7321E+02  2.4994E+04 -1.1890E+05  3.1231E+04  0.0000E+00  0.0000E+00  0.0000E+00  0.0000E+00
   3.127h  1.5061E+04  0.0000E+00  0.0000E+00  0.0000E+00  9.0000E+01  9.0000E+01  9.0000E+01  0.0000E+00 -8.2117E+00

  rolling -9.7088E+03  1.8105E+02 -2.5467E+04  5.8333E+03 -3.1301E+04  0.0000E+00  0.0000E+00  0.0000E+00  0.0000E+00
 averages -3.0358E+04  1.7462E+02  2.3991E+04 -1.2006E+05  3.1302E+04  0.0000E+00  0.0000E+00  0.0000E+00  0.0000E+00
           1.5065E+04  0.0000E+00  0.0000E+00  0.0000E+00  9.0000E+01  9.0000E+01  9.0000E+01  0.0000E+00 -7.8332E+00
 ------------------------------------------------------------------------------------------------------------------------
    99400 -9.7051E+03  1.7908E+02 -2.5478E+04  5.9779E+03 -3.1455E+04  0.0000E+00  0.0000E+00  0.0000E+00  0.0000E+00
  99.400p -2.9964E+04  1.7646E+02  2.2631E+04 -1.2221E+05  3.1456E+04  0.0000E+00  0.0000E+00  0.0000E+00  0.0000E+00
   3.130h  1.4990E+04  0.0000E+00  0.0000E+00  0.0000E+00  9.0000E+01  9.0000E+01  9.0000E+01  0.0000E+00 -7.4032E+00

  rolling -9.7037E+03  1.7880E+02 -2.5485E+04  5.8526E+03 -3.1338E+04  0.0000E+00  0.0000E+00  0.0000E+00  0.0000E+00
 averages -3.0246E+04  1.7359E+02  2.3473E+04 -1.2052E+05  3.1339E+04  0.0000E+00  0.0000E+00  0.0000E+00  0.0000E+00
           1.5008E+04  0.0000E+00  0.0000E+00  0.0000E+00  9.0000E+01  9.0000E+01  9.0000E+01  0.0000E+00 -7.6894E+00
 ------------------------------------------------------------------------------------------------------------------------
    99500 -9.7207E+03  1.8775E+02 -2.5408E+04  5.7723E+03 -3.1180E+04  0.0000E+00  0.0000E+00  0.0000E+00  0.0000E+00
  99.500p -2.9896E+04  1.8067E+02  2.3134E+04 -1.1913E+05  3.1181E+04  0.0000E+00  0.0000E+00  0.0000E+00  0.0000E+00
   3.133h  1.5121E+04  0.0000E+00  0.0000E+00  0.0000E+00  9.0000E+01  9.0000E+01  9.0000E+01  0.0000E+00 -7.4604E+00

  rolling -9.7204E+03  1.7977E+02 -2.5411E+04  5.7103E+03 -3.1121E+04  0.0000E+00  0.0000E+00  0.0000E+00  0.0000E+00
 averages -3.0305E+04  1.7690E+02  2.3890E+04 -1.1834E+05  3.1122E+04  0.0000E+00  0.0000E+00  0.0000E+00  0.0000E+00
           1.5102E+04  0.0000E+00  0.0000E+00  0.0000E+00  9.0000E+01  9.0000E+01  9.0000E+01  0.0000E+00 -7.7988E+00
 ------------------------------------------------------------------------------------------------------------------------
    99600 -9.7253E+03  1.7413E+02 -2.5390E+04  5.6877E+03 -3.1078E+04  0.0000E+00  0.0000E+00  0.0000E+00  0.0000E+00
  99.600p -3.0335E+04  1.6966E+02  2.3777E+04 -1.1783E+05  3.1078E+04  0.0000E+00  0.0000E+00  0.0000E+00  0.0000E+00
   3.136h  1.5196E+04  0.0000E+00  0.0000E+00  0.0000E+00  9.0000E+01  9.0000E+01  9.0000E+01  0.0000E+00 -7.7292E+00

  rolling -9.7231E+03  1.8243E+02 -2.5398E+04  5.8301E+03 -3.1229E+04  0.0000E+00  0.0000E+00  0.0000E+00  0.0000E+00
 averages -2.9717E+04  1.7880E+02  2.2309E+04 -1.1990E+05  3.1230E+04  0.0000E+00  0.0000E+00  0.0000E+00  0.0000E+00
           1.5128E+04  0.0000E+00  0.0000E+00  0.0000E+00  9.0000E+01  9.0000E+01  9.0000E+01  0.0000E+00 -7.1986E+00
 ------------------------------------------------------------------------------------------------------------------------
    99700 -9.7032E+03  1.8035E+02 -2.5478E+04  5.9545E+03 -3.1433E+04  0.0000E+00  0.0000E+00  0.0000E+00  0.0000E+00
  99.700p -2.9879E+04  1.6997E+02  2.2538E+04 -1.2193E+05  3.1434E+04  0.0000E+00  0.0000E+00  0.0000E+00  0.0000E+00
   3.140h  1.5053E+04  0.0000E+00  0.0000E+00  0.0000E+00  9.0000E+01  9.0000E+01  9.0000E+01  0.0000E+00 -7.2969E+00

  rolling -9.7080E+03  1.7877E+02 -2.5459E+04  5.7619E+03 -3.1221E+04  0.0000E+00  0.0000E+00  0.0000E+00  0.0000E+00
 averages -3.0543E+04  1.7552E+02  2.4414E+04 -1.1904E+05  3.1222E+04  0.0000E+00  0.0000E+00  0.0000E+00  0.0000E+00
           1.5150E+04  0.0000E+00  0.0000E+00  0.0000E+00  9.0000E+01  9.0000E+01  9.0000E+01  0.0000E+00 -7.9658E+00
 ------------------------------------------------------------------------------------------------------------------------
    99800 -9.7102E+03  1.7352E+02 -2.5434E+04  5.6580E+03 -3.1092E+04  0.0000E+00  0.0000E+00  0.0000E+00  0.0000E+00
  99.800p -3.0612E+04  1.6638E+02  2.4478E+04 -1.1752E+05  3.1092E+04  0.0000E+00  0.0000E+00  0.0000E+00  0.0000E+00
   3.143h  1.5170E+04  0.0000E+00  0.0000E+00  0.0000E+00  9.0000E+01  9.0000E+01  9.0000E+01  0.0000E+00 -7.9854E+00

  rolling -9.6997E+03  1.7947E+02 -2.5491E+04  5.8367E+03 -3.1327E+04  0.0000E+00  0.0000E+00  0.0000E+00  0.0000E+00
 averages -3.0294E+04  1.7741E+02  2.3594E+04 -1.2020E+05  3.1328E+04  0.0000E+00  0.0000E+00  0.0000E+00  0.0000E+00
           1.5099E+04  0.0000E+00  0.0000E+00  0.0000E+00  9.0000E+01  9.0000E+01  9.0000E+01  0.0000E+00 -7.6973E+00
 ------------------------------------------------------------------------------------------------------------------------
    99900 -9.6989E+03  1.7602E+02 -2.5393E+04  5.8951E+03 -3.1288E+04  0.0000E+00  0.0000E+00  0.0000E+00  0.0000E+00
  99.900p -2.8274E+04  1.7305E+02  1.7662E+04 -1.2088E+05  3.1289E+04  0.0000E+00  0.0000E+00  0.0000E+00  0.0000E+00
   3.146h  1.5082E+04  0.0000E+00  0.0000E+00  0.0000E+00  9.0000E+01  9.0000E+01  9.0000E+01  0.0000E+00 -5.5707E+00

  rolling -9.6961E+03  1.7971E+02 -2.5463E+04  5.8547E+03 -3.1317E+04  0.0000E+00  0.0000E+00  0.0000E+00  0.0000E+00
 averages -2.9603E+04  1.7620E+02  2.1635E+04 -1.2026E+05  3.1318E+04  0.0000E+00  0.0000E+00  0.0000E+00  0.0000E+00
           1.5111E+04  0.0000E+00  0.0000E+00  0.0000E+00  9.0000E+01  9.0000E+01  9.0000E+01  0.0000E+00 -6.9755E+00
 ------------------------------------------------------------------------------------------------------------------------
 ------------------------------------------------------------------------------------------------------------------------

     step     eng_tot    temp_tot     eng_cfg     eng_vdw     eng_cou     eng_bnd     eng_ang     eng_dih     eng_tet
 time          eng_pv    temp_rot     vir_cfg     vir_vdw     vir_cou     vir_bnd     vir_ang     vir_con     vir_tet
 cpu time      volume    temp_shl     eng_shl     vir_shl       alpha        beta       gamma     vir_pmf       press

 ------------------------------------------------------------------------------------------------------------------------
   100000 -9.6851E+03  1.7562E+02 -2.5072E+04  5.6253E+03 -3.0697E+04  0.0000E+00  0.0000E+00  0.0000E+00  0.0000E+00
 100.000p -2.4592E+04  1.7162E+02  7.5706E+03 -1.1709E+05  3.0698E+04  0.0000E+00  0.0000E+00  0.0000E+00  0.0000E+00
   3.149h  1.5134E+04  0.0000E+00  0.0000E+00  0.0000E+00  9.0000E+01  9.0000E+01  9.0000E+01  0.0000E+00 -1.9062E+00

  rolling -9.6830E+03  1.7641E+02 -2.5265E+04  5.6466E+03 -3.0912E+04  0.0000E+00  0.0000E+00  0.0000E+00  0.0000E+00
 averages -2.7181E+04  1.7566E+02  1.4759E+04 -1.1742E+05  3.0913E+04  0.0000E+00  0.0000E+00  0.0000E+00  0.0000E+00
           1.5138E+04  0.0000E+00  0.0000E+00  0.0000E+00  9.0000E+01  9.0000E+01  9.0000E+01  0.0000E+00 -4.5118E+00
 ------------------------------------------------------------------------------------------------------------------------


 run terminating. elapsed cpu time =   1.13361E+04, job time =   5.000d, close time =  600.00s



 run terminated after  100000 steps. final averages calculated over   95000 steps.


 ------------------------------------------------------------------------------------------------------------------------

     step     eng_tot    temp_tot     eng_cfg     eng_vdw     eng_cou     eng_bnd     eng_ang     eng_dih     eng_tet
 time          eng_pv    temp_rot     vir_cfg     vir_vdw     vir_cou     vir_bnd     vir_ang     vir_con     vir_tet
 cpu time      volume    temp_shl     eng_shl     vir_shl       alpha        beta       gamma     vir_pmf       press

 ------------------------------------------------------------------------------------------------------------------------
   100000 -1.5701E+04  1.7999E+02 -2.4766E+04  5.4080E+03 -3.0174E+04  0.0000E+00  0.0000E+00  0.0000E+00  0.0000E+00
 100.000p -2.3655E+04  1.7337E+02  5.9345E+03 -1.1480E+05  3.0175E+04  0.0000E+00  0.0000E+00  0.0000E+00  0.0000E+00
   3.149h  1.4966E+04  0.0000E+00  0.0000E+00  0.0000E+00  9.0000E+01  9.0000E+01  9.0000E+01  0.0000E+00 -1.3152E+00

  r.m.s.   2.8169E+03  4.8943E+00  4.1052E+02  2.4954E+02  6.2626E+02  0.0000E+00  0.0000E+00  0.0000E+00  0.0000E+00
 fluctn.   3.6509E+03  7.8376E+00  9.7681E+03  3.4712E+03  6.2628E+02  0.0000E+00  0.0000E+00  0.0000E+00  0.0000E+00
           2.3409E+02  0.0000E+00  0.0000E+00  0.0000E+00  2.4450E-13  2.4450E-13  2.4450E-13  0.0000E+00  3.5449E+00
 ------------------------------------------------------------------------------------------------------------------------


            Approximate 3D Diffusion  coefficients (10^-9 m^2 / s)

            atom        D 
            O_tip4p    7.6181E-02
            H_tip4p    8.1646E-02
            M_tip4p    7.4939E-02


                Average pressure tensor                                       r.m.s. fluctuations 

          -1.5773E-01  1.9268E-01  1.1185E-01                          7.7279E-01  4.7488E-01  4.7409E-01
           1.9268E-01  1.6342E-01 -2.4637E-02                          4.7488E-01  7.6476E-01  4.4694E-01
           1.1185E-01 -2.4637E-02  4.2873E-02                          4.7409E-01  4.4694E-01  7.3047E-01

            trace/3.   1.6186E-02


                 Average cell vectors                                         r.m.s. fluctuations 

       24.6429498025        0.0000000000        0.0000000000           1.2878E-01  0.0000E+00  0.0000E+00
        0.0000000000       24.6429498025        0.0000000000           0.0000E+00  1.2878E-01  0.0000E+00
        0.0000000000        0.0000000000       24.6429498025           0.0000E+00  0.0000E+00  1.2878E-01


 sample of final configuration

      i       x(i)        y(i)        z(i)       vx(i)       vy(i)       vz(i)       fx(i)       fy(i)       fz(i)


      1  2.2683E+00  2.0038E+00  7.2587E+00  2.4748E+00  2.7749E+00  6.7885E-01 -2.6116E+03 -2.4775E+02 -1.6088E+03
    104 -1.3536E+00 -8.7388E+00 -3.9126E+00  5.8550E-01  5.4436E+00 -3.1104E+00  8.7059E+03  1.5059E+04 -7.4646E+03
    207 -1.9119E-01 -4.6643E+00  7.4921E+00  2.1693E+00 -1.4619E+01  1.8858E+00  1.3307E+04  1.7944E+03  4.5197E+03
    310 -4.4245E+00 -6.9624E+00 -1.1715E+01 -7.9968E-01  2.1426E+00 -4.3840E+00  7.7899E+03 -6.8194E+03 -4.4066E+03
    413  9.0623E+00  3.2143E+00  1.0956E+01  6.2451E+00 -7.8170E-01  7.6316E-01  5.7484E+02  2.0747E+02  1.2548E+03
    516 -4.5887E+00 -9.3256E+00 -1.8066E+00 -8.6678E-01 -4.7825E+00  2.9146E+00 -3.1113E+03  1.0359E+04  1.5556E+04
    619  5.7790E+00 -4.1789E+00  4.2441E+00 -1.4593E+01  4.2018E+00  8.1668E+00  2.9929E+03  1.0657E+04 -5.9269E+02
    722 -1.7284E+00 -9.0105E+00 -6.6598E-01 -4.7817E-01 -1.4430E+00 -1.6111E+00  5.1862E+03 -1.1215E+04  8.1288E+03
    825  3.8065E+00 -6.5768E+00  1.0628E+01 -1.6199E+00  1.1672E+00  1.5045E+00  4.5967E+03 -2.4927E+03  6.0816E+02
    928  6.4628E+00 -7.4582E+00 -9.8803E+00 -3.0962E+00 -2.6573E+00 -2.5639E+00  4.2861E+03  1.7977E+04  3.1473E+03
   1031 -7.6030E+00 -9.5693E+00 -5.9872E+00 -2.9567E+00  4.7390E+00  4.0511E+00 -1.1587E+04  1.5541E+03 -6.1958E+03
   1134 -7.2272E+00 -2.1158E+00  9.1045E+00 -5.1859E+00 -1.6946E+00 -1.3122E+01 -1.1686E+04  1.9408E+03  6.7448E+03
   1237  1.2048E+01  9.7243E+00 -9.2098E+00 -2.2728E+00  3.3854E+00  1.4770E+00  1.2783E+03  2.1259E+03 -4.9134E+03
   1340 -7.8876E+00  1.0840E+01  1.0990E+01 -4.7079E-01 -2.9050E+00  7.9575E-01 -1.8615E+04  6.8525E+03  5.1956E+03
   1443 -7.2764E+00 -2.0535E+00 -3.2486E+00 -1.1250E+00  6.5940E+00 -1.0714E+01  9.9721E+03  4.7240E+03  3.7759E+02
   1546 -1.1564E+01  3.5012E+00  2.2611E+00 -5.0558E+00 -1.1962E+00  1.8928E+00  3.5412E+03  2.6323E+03 -9.2195E+03
   1649  9.9023E+00 -4.2289E+00  5.4483E+00 -4.2907E+00 -3.0564E+00  1.6728E+00 -1.3073E+02 -2.7419E+03 -4.5042E+03
   1752 -1.0575E+01 -4.3004E-02 -1.0771E+01  3.4083E+00  4.1027E+00  6.0727E-01  1.8472E+04  5.7249E+02 -8.5691E+03
   1855 -2.7792E+00  5.1728E+00  1.4898E+00 -9.2622E+00  1.3627E+01  1.8939E+00  6.2335E+03  1.1023E+04 -6.7291E+03
   1958 -1.0977E+01 -7.6180E+00  1.5361E+00 -1.4557E+01 -5.7488E+00 -7.0574E+00 -1.8399E+03  9.5689E+03  6.9723E+03

 time elapsed since job start =       11336.203 seconds

