
                    DL_POLY Classic 1.2

                              Running on    8 nodes


 ************************************************************************************************************************
 ************************************************************************************************************************
 ************************************************************************************************************************
 ***************     DL_POLY TEST 35: DMSO Free Energy Test Case                                          ***************
 ************************************************************************************************************************
 ************************************************************************************************************************
 ************************************************************************************************************************


 SIMULATION CONTROL PARAMETERS


 velocity verlet integration selected

 simulation temperature           2.9800E+02

 selected number of timesteps         1000

 equilibration period                  500

 simulation timestep              1.0000E-03

 data printing interval                 10

 statistics file interval               10

 noscale restart requested

 Nose-Hoover 
 thermostat relaxation time       1.0000E-01


 radial distribution functions on 
 g(r) collection interval               10
 g(r) bin width                   5.0000E-02

 g(r) printing option on      

 real space cut off               1.3000E+01

 real space cut off (vdw)         1.3000E+01

 border width of Verlet shell     1.0000E+00


 Electrostatics : reaction field


 relative dielectric constant     4.6000E+01

 free energy option selected
 start of free energy calculation        500
 sampling interval                        10
 free energy parameter (lambda)        0.250
 mixing rule selected                      4
 mixing rule exponent                      1
 system A first atom                    5021
 system A last atom                     5120
 system B first atom                    5121
 system B last atom                     5220
 mass scaling option                       F

 user allocated job time (h)     10.0000

 job closure time        (s)     100.000

  *** warning - RDF calculation cancelled - free energy option in use ***


SYSTEM SPECIFICATION

 energy units=kcal/ mol 


 number of molecular types               2

 molecular species type                  1


 name of species:             DMSO                                    

 number of molecules                   512

 number of atoms/sites                  10


 atomic characteristics:

                      site     name          mass        charge    repeat    freeze

                         1     S           32.06000     0.11674         1         0
                         2     O           15.99940    -0.43674         1         0
                         3     C           12.01100     0.16000         1         0
                         4     C           12.01100     0.16000         1         0
                         5     H            1.00800     0.00000         1         0
                         6     H            1.00800     0.00000         1         0
                         7     H            1.00800     0.00000         1         0
                         8     H            1.00800     0.00000         1         0
                         9     H            1.00800     0.00000         1         0
                        10     H            1.00800     0.00000         1         0

 number of bond constraints              9


 constraint bond details:

                          index     index  bondlength

                              1         2    1.590000
                              1         3    1.800000
                              3         5    1.090000
                              1         4    1.800000
                              3         6    1.090000
                              3         7    1.090000
                              4         8    1.090000
                              4        10    1.090000
                              4         9    1.090000

 number of bond angles                  15


 bond angle details:

                            key     index     index     index     f-const       angle

                           hcos         2         1         3  1.0013E+02   92.100000    0.000000    0.000000    0.000000    0.000000
                           hcos         2         1         4  1.0013E+02   92.100000    0.000000    0.000000    0.000000    0.000000
                           hcos         3         1         4  1.0013E+02   92.100000    0.000000    0.000000    0.000000    0.000000
                           hcos         1         3         5  1.1250E+02  109.471000    0.000000    0.000000    0.000000    0.000000
                           hcos         1         3         6  1.1250E+02  109.471000    0.000000    0.000000    0.000000    0.000000
                           hcos         5         3         6  1.1250E+02  109.471000    0.000000    0.000000    0.000000    0.000000
                           hcos         1         3         7  1.1250E+02  109.471000    0.000000    0.000000    0.000000    0.000000
                           hcos         5         3         7  1.1250E+02  109.471000    0.000000    0.000000    0.000000    0.000000
                           hcos         6         3         7  1.1250E+02  109.471000    0.000000    0.000000    0.000000    0.000000
                           hcos         1         4         8  1.1250E+02  109.471000    0.000000    0.000000    0.000000    0.000000
                           hcos         1         4        10  1.1250E+02  109.471000    0.000000    0.000000    0.000000    0.000000
                           hcos         8         4        10  1.1250E+02  109.471000    0.000000    0.000000    0.000000    0.000000
                           hcos         1         4         9  1.1250E+02  109.471000    0.000000    0.000000    0.000000    0.000000
                           hcos         8         4         9  1.1250E+02  109.471000    0.000000    0.000000    0.000000    0.000000
                           hcos         9         4        10  1.1250E+02  109.471000    0.000000    0.000000    0.000000    0.000000

 number of dihedral angles              12


 dihedral angle details:

                            key     index     index     index     index     f-const       angle        trig    1-4 elec     1-4 vdw

                           cos          2         1         3         5  1.6667E-01    0.000000    3.000000    1.000000    1.000000
                           cos          2         1         3         6  1.6667E-01    0.000000    3.000000    1.000000    1.000000
                           cos          2         1         3         7  1.6667E-01    0.000000    3.000000    1.000000    1.000000
                           cos          4         1         3         5  1.6667E-01    0.000000    3.000000    1.000000    1.000000
                           cos          4         1         3         6  1.6667E-01    0.000000    3.000000    1.000000    1.000000
                           cos          4         1         3         7  1.6667E-01    0.000000    3.000000    1.000000    1.000000
                           cos          2         1         4         8  1.6667E-01    0.000000    3.000000    1.000000    1.000000
                           cos          2         1         4        10  1.6667E-01    0.000000    3.000000    1.000000    1.000000
                           cos          2         1         4         9  1.6667E-01    0.000000    3.000000    1.000000    1.000000
                           cos          3         1         4         8  1.6667E-01    0.000000    3.000000    1.000000    1.000000
                           cos          3         1         4        10  1.6667E-01    0.000000    3.000000    1.000000    1.000000
                           cos          3         1         4         9  1.6667E-01    0.000000    3.000000    1.000000    1.000000

 molecular species type                  2


 name of species:             DMSO*                                   

 number of molecules                    10

 number of atoms/sites                  10


 atomic characteristics:

                      site     name          mass        charge    repeat    freeze

                        11     S*          32.06000     1.11674         1         0
                        12     O*          15.99940    -1.43674         1         0
                        13     C           12.01100     0.16000         1         0
                        14     C           12.01100     0.16000         1         0
                        15     H            1.00800     0.00000         1         0
                        16     H            1.00800     0.00000         1         0
                        17     H            1.00800     0.00000         1         0
                        18     H            1.00800     0.00000         1         0
                        19     H            1.00800     0.00000         1         0
                        20     H            1.00800     0.00000         1         0

 number of bond constraints              9


 constraint bond details:

                          index     index  bondlength

                              1         2    1.590000
                              1         3    1.800000
                              3         5    1.090000
                              1         4    1.800000
                              3         6    1.090000
                              3         7    1.090000
                              4         8    1.090000
                              4        10    1.090000
                              4         9    1.090000

 number of bond angles                  15


 bond angle details:

                            key     index     index     index     f-const       angle

                           hcos         2         1         3  1.0013E+02   92.100000    0.000000    0.000000    0.000000    0.000000
                           hcos         2         1         4  1.0013E+02   92.100000    0.000000    0.000000    0.000000    0.000000
                           hcos         3         1         4  1.0013E+02   92.100000    0.000000    0.000000    0.000000    0.000000
                           hcos         1         3         5  1.1250E+02  109.471000    0.000000    0.000000    0.000000    0.000000
                           hcos         1         3         6  1.1250E+02  109.471000    0.000000    0.000000    0.000000    0.000000
                           hcos         5         3         6  1.1250E+02  109.471000    0.000000    0.000000    0.000000    0.000000
                           hcos         1         3         7  1.1250E+02  109.471000    0.000000    0.000000    0.000000    0.000000
                           hcos         5         3         7  1.1250E+02  109.471000    0.000000    0.000000    0.000000    0.000000
                           hcos         6         3         7  1.1250E+02  109.471000    0.000000    0.000000    0.000000    0.000000
                           hcos         1         4         8  1.1250E+02  109.471000    0.000000    0.000000    0.000000    0.000000
                           hcos         1         4        10  1.1250E+02  109.471000    0.000000    0.000000    0.000000    0.000000
                           hcos         8         4        10  1.1250E+02  109.471000    0.000000    0.000000    0.000000    0.000000
                           hcos         1         4         9  1.1250E+02  109.471000    0.000000    0.000000    0.000000    0.000000
                           hcos         8         4         9  1.1250E+02  109.471000    0.000000    0.000000    0.000000    0.000000
                           hcos         9         4        10  1.1250E+02  109.471000    0.000000    0.000000    0.000000    0.000000

 number of dihedral angles              12


 dihedral angle details:

                            key     index     index     index     index     f-const       angle        trig    1-4 elec     1-4 vdw

                           cos          2         1         3         5  1.6667E-01    0.000000    3.000000    1.000000    1.000000
                           cos          2         1         3         6  1.6667E-01    0.000000    3.000000    1.000000    1.000000
                           cos          2         1         3         7  1.6667E-01    0.000000    3.000000    1.000000    1.000000
                           cos          4         1         3         5  1.6667E-01    0.000000    3.000000    1.000000    1.000000
                           cos          4         1         3         6  1.6667E-01    0.000000    3.000000    1.000000    1.000000
                           cos          4         1         3         7  1.6667E-01    0.000000    3.000000    1.000000    1.000000
                           cos          2         1         4         8  1.6667E-01    0.000000    3.000000    1.000000    1.000000
                           cos          2         1         4        10  1.6667E-01    0.000000    3.000000    1.000000    1.000000
                           cos          2         1         4         9  1.6667E-01    0.000000    3.000000    1.000000    1.000000
                           cos          3         1         4         8  1.6667E-01    0.000000    3.000000    1.000000    1.000000
                           cos          3         1         4        10  1.6667E-01    0.000000    3.000000    1.000000    1.000000
                           cos          3         1         4         9  1.6667E-01    0.000000    3.000000    1.000000    1.000000


 number of specified pair potentials        21


                atom 1  atom 2      key                              parameters


                S       S         12-6     6.31276E+06  2.94726E+03
                S*      S*        12-6     6.31276E+06  2.94726E+03
                S       S*        12-6     6.31276E+06  2.94726E+03
                S       O         12-6     1.26318E+06  9.57483E+02
                S*      O*        12-6     1.26318E+06  9.57483E+02
                S       O*        12-6     1.26318E+06  9.57483E+02
                S*      O         12-6     1.26318E+06  9.57483E+02
                S       C         12-6     2.72377E+06  1.40378E+03
                S*      C         12-6     2.72377E+06  1.40378E+03
                S       H         12-6     3.57187E+05  3.21424E+02
                S*      H         12-6     3.57187E+05  3.21424E+02
                O       O         12-6     2.32116E+05  2.98084E+02
                O*      O*        12-6     2.32116E+05  2.98084E+02
                O       O*        12-6     2.32116E+05  2.98084E+02
                O       C         12-6     5.35958E+05  4.52239E+02
                O*      C         12-6     5.35958E+05  4.52239E+02
                O       H         12-6     6.35666E+04  9.84767E+01
                O*      H         12-6     6.35666E+04  9.84767E+01
                C       C         12-6     1.17134E+06  6.67517E+02
                C       H         12-6     1.50602E+05  1.51339E+02
                H       H         12-6     1.71986E+04  3.23369E+01

 configuration file name: 

          Dimethyl Sulfoxide                                                              


 selected image convention               1


 simulation cell vectors


                        40.351897    0.000000    0.000000
                         0.000000   40.351897    0.000000
                         0.000000    0.000000   40.351897


 system volume            65704.0089859    

 shared atoms from passcon                      10


 total degrees of freedom                     10959.
 rotational degrees of freedom                    0.
 shell pseudo degrees of freedom                  0.


 sample of starting configuration

      i       x(i)        y(i)        z(i)       vx(i)       vy(i)       vz(i)       fx(i)       fy(i)       fz(i)


      1 -1.1067E+01 -1.5990E+01  1.8234E+01 -5.0051E+00 -1.4052E+00 -3.0638E+00 -7.4634E+02  7.7080E+03 -2.1924E+03
    262 -9.3568E-01 -4.3169E+00 -1.8197E+01  3.4366E+00 -2.9542E+00 -3.9418E+00  6.9603E+02  1.5140E+03  8.1148E+02
    523 -1.7648E+00  8.9973E+00 -1.2322E+01  4.5309E+00  1.9172E+00  1.7428E+00  1.0845E+04 -9.9802E+02 -6.2152E+03
    784  9.4893E+00 -1.7972E+01  1.8163E+01 -1.8015E+00  1.6849E+00  4.2711E+00 -2.3541E+03  3.6120E+03 -2.4138E+03
   1045 -1.7895E+01  1.0635E+01 -1.3451E+01 -1.5141E+00 -3.0667E+01 -2.5006E+01  3.3668E+03 -2.3263E+02 -3.8329E+02
   1306 -9.5641E+00 -1.6171E+01  3.9685E+00  1.0543E+00  5.1340E+00  3.6583E+00  1.1475E+03 -1.8948E+03  1.1919E+03
   1567  4.4186E+00  1.6141E+00 -1.8357E+01  2.3253E+00 -9.4374E+00 -1.9472E+01 -3.2374E+02  5.7764E+03  3.4112E+03
   1828  1.1102E+01  1.1683E+01 -6.9272E+00 -1.7384E+01 -2.6791E+01 -5.7196E+00  1.7145E+02  4.1256E+03 -1.5925E+03
   2089 -1.1670E+01 -7.9887E+00 -2.7771E+00  2.3068E+01 -1.5665E+01 -1.4717E+01  5.6263E+03 -6.3494E+03 -6.8127E+03
   2350 -3.6586E+00  3.3739E+00  3.0148E+00 -1.0059E+01 -2.6505E+01 -1.4018E+01  1.7296E+03 -3.2791E+02  1.8910E+03
   2611  7.8326E+00 -1.5667E+01  2.5602E+00  4.3721E-01  4.1709E+00  3.6283E+00 -2.2536E+03  2.0490E+02 -8.0654E+02
   2872 -1.9707E+01  2.1874E+00 -5.1526E+00 -1.9905E+00  1.0929E+00 -4.3402E+00  4.0035E+03 -2.0924E+03 -2.6075E+03
   3133 -1.5938E+01  1.4667E+01  7.0864E+00 -3.1693E-01  6.7051E-02 -3.2730E+00 -8.3378E+03 -2.0902E+03 -9.7802E+03
   3394  5.6858E+00 -4.0498E+00  2.3257E+00 -4.8656E+00  6.5530E+00  4.0974E+00 -6.4970E+03  1.0224E+03  9.0480E+02
   3655  5.7058E+00  7.2374E+00  1.8578E-01 -3.2188E+00 -4.9451E+00 -1.8756E+01  6.0561E+02  2.0132E+02  1.0886E+03
   3916 -1.3046E+01 -1.8439E+01  1.0880E+01  7.5111E+00 -2.2373E+01 -4.5020E+00 -1.6142E+03 -3.5796E+03  6.7070E+03
   4177 -8.8453E+00  9.9474E+00  1.3357E+01  1.2130E+01 -8.0521E+00  4.1901E+00  1.7895E+03 -7.4831E+02  3.7887E+02
   4438  6.4735E+00  1.2977E+01  1.3967E+01 -1.0253E+01 -1.7072E+01  4.5890E+00 -5.1078E+03 -3.0173E+03 -1.0599E+03
   4699 -3.0559E+00 -4.1305E+00 -1.6183E+01  9.6933E+00  1.0654E+00  1.8767E+00  2.2335E+03 -5.1283E+02 -2.1549E+03
   4960 -1.8474E+01  3.1209E+00  1.1352E+01 -1.8615E-01 -6.6445E+00 -1.0662E+01  3.5620E+03  1.1878E+03 -7.6443E+03


long range correction for: vdw energy    -0.954171E+02
                         : vdw pressure  -0.199134E+00

 time elapsed since job start =           1.101 seconds

 ------------------------------------------------------------------------------------------------------------------------

     step     eng_tot    temp_tot     eng_cfg     eng_vdw     eng_cou     eng_bnd     eng_ang     eng_dih     eng_tet
 time          eng_pv    temp_rot     vir_cfg     vir_vdw     vir_cou     vir_bnd     vir_ang     vir_con     vir_tet
 cpu time      volume    temp_shl     eng_shl     vir_shl       alpha        beta       gamma     vir_pmf       press

 ------------------------------------------------------------------------------------------------------------------------
        1  3.1663E+03  2.9156E+02 -8.4287E+00 -1.9470E+03 -1.6161E+03  0.0000E+00  3.1652E+03  3.8954E+02  0.0000E+00
   1.000f  1.3615E+03  0.0000E+00  1.1764E+04 -2.2330E+04  1.6506E+03  0.0000E+00  0.0000E+00  3.2443E+04  0.0000E+00
   1.323s  6.5704E+04  0.0000E+00  0.0000E+00  0.0000E+00  9.0000E+01  9.0000E+01  9.0000E+01  0.0000E+00 -1.8835E+00

  rolling  3.1663E+03  2.9156E+02 -8.4287E+00 -1.9470E+03 -1.6161E+03  0.0000E+00  3.1652E+03  3.8954E+02  0.0000E+00
 averages  1.3615E+03  0.0000E+00  1.1764E+04 -2.2330E+04  1.6506E+03  0.0000E+00  0.0000E+00  3.2443E+04  0.0000E+00
           6.5704E+04  0.0000E+00  0.0000E+00  0.0000E+00  9.0000E+01  9.0000E+01  9.0000E+01  0.0000E+00 -1.8835E+00
 ------------------------------------------------------------------------------------------------------------------------
       10  3.1590E+03  3.3262E+02 -4.6402E+02 -2.0525E+03 -1.6169E+03  0.0000E+00  2.8118E+03  3.9359E+02  0.0000E+00
  10.000f  5.8796E+03  0.0000E+00 -9.2137E+02 -2.1023E+04  1.6490E+03  0.0000E+00  0.0000E+00  1.8453E+04  0.0000E+00
   2.035s  6.5704E+04  0.0000E+00  0.0000E+00  0.0000E+00  9.0000E+01  9.0000E+01  9.0000E+01  0.0000E+00  2.8404E+00

  rolling  3.1596E+03  3.2009E+02 -3.2600E+02 -2.0192E+03 -1.6162E+03  0.0000E+00  2.9181E+03  3.9141E+02  0.0000E+00
 averages  5.5527E+03  0.0000E+00 -2.0898E+02 -2.1433E+04  1.6494E+03  0.0000E+00  0.0000E+00  1.9574E+04  0.0000E+00
           6.5704E+04  0.0000E+00  0.0000E+00  0.0000E+00  9.0000E+01  9.0000E+01  9.0000E+01  0.0000E+00  2.4976E+00
 ------------------------------------------------------------------------------------------------------------------------
       20  3.1605E+03  3.2080E+02 -3.4195E+02 -2.0512E+03 -1.6223E+03  0.0000E+00  2.9293E+03  4.0231E+02  0.0000E+00
  20.000f  5.9701E+03  0.0000E+00 -1.4704E+03 -2.1049E+04  1.6528E+03  0.0000E+00  0.0000E+00  1.7926E+04  0.0000E+00
   2.916s  6.5704E+04  0.0000E+00  0.0000E+00  0.0000E+00  9.0000E+01  9.0000E+01  9.0000E+01  0.0000E+00  2.9418E+00

  rolling  3.1595E+03  3.2378E+02 -3.6871E+02 -2.0337E+03 -1.6180E+03  0.0000E+00  2.8884E+03  3.9459E+02  0.0000E+00
 averages  5.8124E+03  0.0000E+00 -9.1522E+02 -2.1262E+04  1.6502E+03  0.0000E+00  0.0000E+00  1.8697E+04  0.0000E+00
           6.5704E+04  0.0000E+00  0.0000E+00  0.0000E+00  9.0000E+01  9.0000E+01  9.0000E+01  0.0000E+00  2.7712E+00
 ------------------------------------------------------------------------------------------------------------------------
       30  3.1586E+03  3.4101E+02 -5.7980E+02 -2.0767E+03 -1.6275E+03  0.0000E+00  2.7179E+03  4.0655E+02  0.0000E+00
  30.000f  5.2917E+03  0.0000E+00  9.5160E+02 -2.0712E+04  1.6541E+03  0.0000E+00  0.0000E+00  2.0009E+04  0.0000E+00
   3.808s  6.5704E+04  0.0000E+00  0.0000E+00  0.0000E+00  9.0000E+01  9.0000E+01  9.0000E+01  0.0000E+00  2.2524E+00

  rolling  3.1593E+03  3.2783E+02 -4.1780E+02 -2.0508E+03 -1.6204E+03  0.0000E+00  2.8555E+03  3.9784E+02  0.0000E+00
 averages  5.6450E+03  0.0000E+00 -3.3972E+02 -2.1043E+04  1.6514E+03  0.0000E+00  0.0000E+00  1.9052E+04  0.0000E+00
           6.5704E+04  0.0000E+00  0.0000E+00  0.0000E+00  9.0000E+01  9.0000E+01  9.0000E+01  0.0000E+00  2.6017E+00
 ------------------------------------------------------------------------------------------------------------------------
       40  3.1579E+03  3.4274E+02 -6.2421E+02 -2.0935E+03 -1.6331E+03  0.0000E+00  2.6998E+03  4.0258E+02  0.0000E+00
  40.000f  5.5752E+03  0.0000E+00  6.2289E+01 -2.0509E+04  1.6556E+03  0.0000E+00  0.0000E+00  1.8916E+04  0.0000E+00
   4.710s  6.5704E+04  0.0000E+00  0.0000E+00  0.0000E+00  9.0000E+01  9.0000E+01  9.0000E+01  0.0000E+00  2.5749E+00

  rolling  3.1594E+03  3.2872E+02 -4.3506E+02 -2.0558E+03 -1.6229E+03  0.0000E+00  2.8440E+03  3.9975E+02  0.0000E+00
 averages  5.7056E+03  0.0000E+00 -5.2509E+02 -2.0983E+04  1.6522E+03  0.0000E+00  0.0000E+00  1.8805E+04  0.0000E+00
           6.5704E+04  0.0000E+00  0.0000E+00  0.0000E+00  9.0000E+01  9.0000E+01  9.0000E+01  0.0000E+00  2.6730E+00
 ------------------------------------------------------------------------------------------------------------------------
       50  3.1598E+03  3.2510E+02 -4.6495E+02 -2.0485E+03 -1.6384E+03  0.0000E+00  2.8282E+03  3.9375E+02  0.0000E+00
  50.000f  5.6376E+03  0.0000E+00 -6.0783E+02 -2.1060E+04  1.6558E+03  0.0000E+00  0.0000E+00  1.8796E+04  0.0000E+00
   5.612s  6.5704E+04  0.0000E+00  0.0000E+00  0.0000E+00  9.0000E+01  9.0000E+01  9.0000E+01  0.0000E+00  2.6743E+00

  rolling  3.1593E+03  3.3033E+02 -4.6339E+02 -2.0612E+03 -1.6255E+03  0.0000E+00  2.8241E+03  3.9929E+02  0.0000E+00
 averages  5.6315E+03  0.0000E+00 -2.9994E+02 -2.0912E+04  1.6530E+03  0.0000E+00  0.0000E+00  1.8960E+04  0.0000E+00
           6.5704E+04  0.0000E+00  0.0000E+00  0.0000E+00  9.0000E+01  9.0000E+01  9.0000E+01  0.0000E+00  2.6068E+00
 ------------------------------------------------------------------------------------------------------------------------
       60  3.1577E+03  3.3923E+02 -6.6331E+02 -2.0795E+03 -1.6428E+03  0.0000E+00  2.6774E+03  3.8159E+02  0.0000E+00
  60.000f  5.3909E+03  0.0000E+00  3.0689E+02 -2.0669E+04  1.6567E+03  0.0000E+00  0.0000E+00  1.9319E+04  0.0000E+00
   6.506s  6.5704E+04  0.0000E+00  0.0000E+00  0.0000E+00  9.0000E+01  9.0000E+01  9.0000E+01  0.0000E+00  2.4632E+00

  rolling  3.1592E+03  3.3065E+02 -4.8045E+02 -2.0617E+03 -1.6281E+03  0.0000E+00  2.8121E+03  3.9725E+02  0.0000E+00
 averages  5.6629E+03  0.0000E+00 -4.2820E+02 -2.0905E+04  1.6535E+03  0.0000E+00  0.0000E+00  1.8823E+04  0.0000E+00
           6.5704E+04  0.0000E+00  0.0000E+00  0.0000E+00  9.0000E+01  9.0000E+01  9.0000E+01  0.0000E+00  2.6539E+00
 ------------------------------------------------------------------------------------------------------------------------
       70  3.1596E+03  3.2708E+02 -5.7941E+02 -2.1064E+03 -1.6453E+03  0.0000E+00  2.7953E+03  3.7694E+02  0.0000E+00
  70.000f  5.0526E+03  0.0000E+00  9.1202E+02 -2.0290E+04  1.6580E+03  0.0000E+00  0.0000E+00  1.9544E+04  0.0000E+00
   7.304s  6.5704E+04  0.0000E+00  0.0000E+00  0.0000E+00  9.0000E+01  9.0000E+01  9.0000E+01  0.0000E+00  2.1606E+00

  rolling  3.1592E+03  3.3026E+02 -4.9265E+02 -2.0649E+03 -1.6304E+03  0.0000E+00  2.8081E+03  3.9461E+02  0.0000E+00
 averages  5.6191E+03  0.0000E+00 -3.5464E+02 -2.0860E+04  1.6540E+03  0.0000E+00  0.0000E+00  1.8851E+04  0.0000E+00
           6.5704E+04  0.0000E+00  0.0000E+00  0.0000E+00  9.0000E+01  9.0000E+01  9.0000E+01  0.0000E+00  2.6253E+00
 ------------------------------------------------------------------------------------------------------------------------
 ------------------------------------------------------------------------------------------------------------------------

     step     eng_tot    temp_tot     eng_cfg     eng_vdw     eng_cou     eng_bnd     eng_ang     eng_dih     eng_tet
 time          eng_pv    temp_rot     vir_cfg     vir_vdw     vir_cou     vir_bnd     vir_ang     vir_con     vir_tet
 cpu time      volume    temp_shl     eng_shl     vir_shl       alpha        beta       gamma     vir_pmf       press

 ------------------------------------------------------------------------------------------------------------------------
       80  3.1600E+03  3.2043E+02 -5.6591E+02 -2.1197E+03 -1.6479E+03  0.0000E+00  2.8235E+03  3.7822E+02  0.0000E+00
  80.000f  5.4867E+03  0.0000E+00 -7.1226E+02 -2.0100E+04  1.6598E+03  0.0000E+00  0.0000E+00  1.7728E+04  0.0000E+00
   8.191s  6.5704E+04  0.0000E+00  0.0000E+00  0.0000E+00  9.0000E+01  9.0000E+01  9.0000E+01  0.0000E+00  2.6752E+00

  rolling  3.1590E+03  3.3081E+02 -5.1802E+02 -2.0733E+03 -1.6325E+03  0.0000E+00  2.7954E+03  3.9236E+02  0.0000E+00
 averages  5.5698E+03  0.0000E+00 -2.5240E+02 -2.0746E+04  1.6547E+03  0.0000E+00  0.0000E+00  1.8839E+04  0.0000E+00
           6.5704E+04  0.0000E+00  0.0000E+00  0.0000E+00  9.0000E+01  9.0000E+01  9.0000E+01  0.0000E+00  2.5940E+00
 ------------------------------------------------------------------------------------------------------------------------
       90  3.1592E+03  3.2643E+02 -6.9811E+02 -2.1630E+03 -1.6493E+03  0.0000E+00  2.7299E+03  3.8426E+02  0.0000E+00
  90.000f  4.3547E+03  0.0000E+00  2.6141E+03 -1.9524E+04  1.6587E+03  0.0000E+00  0.0000E+00  2.0479E+04  0.0000E+00
   9.084s  6.5704E+04  0.0000E+00  0.0000E+00  0.0000E+00  9.0000E+01  9.0000E+01  9.0000E+01  0.0000E+00  1.5636E+00

  rolling  3.1589E+03  3.3060E+02 -5.3776E+02 -2.0817E+03 -1.6343E+03  0.0000E+00  2.7871E+03  3.9111E+02  0.0000E+00
 averages  5.5122E+03  0.0000E+00 -1.5036E+02 -2.0631E+04  1.6552E+03  0.0000E+00  0.0000E+00  1.8826E+04  0.0000E+00
           6.5704E+04  0.0000E+00  0.0000E+00  0.0000E+00  9.0000E+01  9.0000E+01  9.0000E+01  0.0000E+00  2.5569E+00
 ------------------------------------------------------------------------------------------------------------------------
      100  3.1598E+03  3.1255E+02 -6.1844E+02 -2.1570E+03 -1.6505E+03  0.0000E+00  2.7977E+03  3.9136E+02  0.0000E+00
 100.000f  5.1310E+03  0.0000E+00 -2.3159E+02 -1.9602E+04  1.6586E+03  0.0000E+00  0.0000E+00  1.7712E+04  0.0000E+00
   9.984s  6.5704E+04  0.0000E+00  0.0000E+00  0.0000E+00  9.0000E+01  9.0000E+01  9.0000E+01  0.0000E+00  2.4484E+00

  rolling  3.1589E+03  3.2980E+02 -5.5362E+02 -2.0901E+03 -1.6358E+03  0.0000E+00  2.7815E+03  3.9080E+02  0.0000E+00
 averages  5.4369E+03  0.0000E+00 -1.5512E+01 -2.0517E+04  1.6555E+03  0.0000E+00  0.0000E+00  1.8846E+04  0.0000E+00
           6.5704E+04  0.0000E+00  0.0000E+00  0.0000E+00  9.0000E+01  9.0000E+01  9.0000E+01  0.0000E+00  2.5039E+00
 ------------------------------------------------------------------------------------------------------------------------
      110  3.1588E+03  3.1024E+02 -6.7128E+02 -2.1471E+03 -1.6537E+03  0.0000E+00  2.7306E+03  3.9896E+02  0.0000E+00
 110.000f  4.6338E+03  0.0000E+00  9.7557E+02 -1.9703E+04  1.6600E+03  0.0000E+00  0.0000E+00  1.9018E+04  0.0000E+00
  10.891s  6.5704E+04  0.0000E+00  0.0000E+00  0.0000E+00  9.0000E+01  9.0000E+01  9.0000E+01  0.0000E+00  2.0109E+00

  rolling  3.1586E+03  3.2993E+02 -5.9692E+02 -2.1044E+03 -1.6394E+03  0.0000E+00  2.7557E+03  3.9118E+02  0.0000E+00
 averages  5.3716E+03  0.0000E+00  5.7534E+01 -2.0327E+04  1.6565E+03  0.0000E+00  0.0000E+00  1.8728E+04  0.0000E+00
           6.5704E+04  0.0000E+00  0.0000E+00  0.0000E+00  9.0000E+01  9.0000E+01  9.0000E+01  0.0000E+00  2.4795E+00
 ------------------------------------------------------------------------------------------------------------------------
      120  3.1569E+03  3.1271E+02 -7.7850E+02 -2.1326E+03 -1.6583E+03  0.0000E+00  2.6128E+03  3.9963E+02  0.0000E+00
 120.000f  4.6974E+03  0.0000E+00  5.9799E+02 -1.9893E+04  1.6615E+03  0.0000E+00  0.0000E+00  1.8829E+04  0.0000E+00
  11.799s  6.5704E+04  0.0000E+00  0.0000E+00  0.0000E+00  9.0000E+01  9.0000E+01  9.0000E+01  0.0000E+00  2.1610E+00

  rolling  3.1584E+03  3.2821E+02 -6.2730E+02 -2.1143E+03 -1.6431E+03  0.0000E+00  2.7387E+03  3.9138E+02  0.0000E+00
 averages  5.2183E+03  0.0000E+00  3.3271E+02 -2.0187E+04  1.6575E+03  0.0000E+00  0.0000E+00  1.8862E+04  0.0000E+00
           6.5704E+04  0.0000E+00  0.0000E+00  0.0000E+00  9.0000E+01  9.0000E+01  9.0000E+01  0.0000E+00  2.3707E+00
 ------------------------------------------------------------------------------------------------------------------------
      130  3.1566E+03  3.0748E+02 -8.0315E+02 -2.1360E+03 -1.6619E+03  0.0000E+00  2.6002E+03  3.9462E+02  0.0000E+00
 130.000f  4.7235E+03  0.0000E+00  1.6085E+02 -1.9845E+04  1.6619E+03  0.0000E+00  0.0000E+00  1.8344E+04  0.0000E+00
  12.620s  6.5704E+04  0.0000E+00  0.0000E+00  0.0000E+00  9.0000E+01  9.0000E+01  9.0000E+01  0.0000E+00  2.2735E+00

  rolling  3.1582E+03  3.2563E+02 -6.5512E+02 -2.1178E+03 -1.6466E+03  0.0000E+00  2.7186E+03  3.9065E+02  0.0000E+00
 averages  5.1752E+03  0.0000E+00  2.3756E+02 -2.0133E+04  1.6583E+03  0.0000E+00  0.0000E+00  1.8712E+04  0.0000E+00
           6.5704E+04  0.0000E+00  0.0000E+00  0.0000E+00  9.0000E+01  9.0000E+01  9.0000E+01  0.0000E+00  2.3842E+00
 ------------------------------------------------------------------------------------------------------------------------
      140  3.1553E+03  3.1181E+02 -9.3434E+02 -2.1563E+03 -1.6646E+03  0.0000E+00  2.5014E+03  3.8521E+02  0.0000E+00
 140.000f  4.4564E+03  0.0000E+00  8.0429E+02 -1.9583E+04  1.6615E+03  0.0000E+00  0.0000E+00  1.8726E+04  0.0000E+00
  13.534s  6.5704E+04  0.0000E+00  0.0000E+00  0.0000E+00  9.0000E+01  9.0000E+01  9.0000E+01  0.0000E+00  2.0824E+00

  rolling  3.1579E+03  3.2323E+02 -6.9118E+02 -2.1257E+03 -1.6499E+03  0.0000E+00  2.6954E+03  3.8901E+02  0.0000E+00
 averages  5.0279E+03  0.0000E+00  4.4094E+02 -2.0019E+04  1.6590E+03  0.0000E+00  0.0000E+00  1.8801E+04  0.0000E+00
           6.5704E+04  0.0000E+00  0.0000E+00  0.0000E+00  9.0000E+01  9.0000E+01  9.0000E+01  0.0000E+00  2.2953E+00
 ------------------------------------------------------------------------------------------------------------------------
      150  3.1556E+03  3.0126E+02 -9.0304E+02 -2.1429E+03 -1.6658E+03  0.0000E+00  2.5244E+03  3.8135E+02  0.0000E+00
 150.000f  4.6081E+03  0.0000E+00 -1.3126E+02 -1.9743E+04  1.6567E+03  0.0000E+00  0.0000E+00  1.7956E+04  0.0000E+00
  14.451s  6.5704E+04  0.0000E+00  0.0000E+00  0.0000E+00  9.0000E+01  9.0000E+01  9.0000E+01  0.0000E+00  2.3280E+00

  rolling  3.1576E+03  3.1985E+02 -7.2185E+02 -2.1316E+03 -1.6528E+03  0.0000E+00  2.6750E+03  3.8754E+02  0.0000E+00
 averages  4.9710E+03  0.0000E+00  3.3538E+02 -1.9932E+04  1.6593E+03  0.0000E+00  0.0000E+00  1.8608E+04  0.0000E+00
           6.5704E+04  0.0000E+00  0.0000E+00  0.0000E+00  9.0000E+01  9.0000E+01  9.0000E+01  0.0000E+00  2.3064E+00
 ------------------------------------------------------------------------------------------------------------------------
 ------------------------------------------------------------------------------------------------------------------------

     step     eng_tot    temp_tot     eng_cfg     eng_vdw     eng_cou     eng_bnd     eng_ang     eng_dih     eng_tet
 time          eng_pv    temp_rot     vir_cfg     vir_vdw     vir_cou     vir_bnd     vir_ang     vir_con     vir_tet
 cpu time      volume    temp_shl     eng_shl     vir_shl       alpha        beta       gamma     vir_pmf       press

 ------------------------------------------------------------------------------------------------------------------------
      160  3.1560E+03  2.9165E+02 -8.8050E+02 -2.1250E+03 -1.6652E+03  0.0000E+00  2.5297E+03  3.8002E+02  0.0000E+00
 160.000f  4.2874E+03  0.0000E+00  3.7537E+02 -1.9983E+04  1.6527E+03  0.0000E+00  0.0000E+00  1.8705E+04  0.0000E+00
  15.277s  6.5704E+04  0.0000E+00  0.0000E+00  0.0000E+00  9.0000E+01  9.0000E+01  9.0000E+01  0.0000E+00  2.0789E+00

  rolling  3.1573E+03  3.1631E+02 -7.5534E+02 -2.1379E+03 -1.6553E+03  0.0000E+00  2.6510E+03  3.8689E+02  0.0000E+00
 averages  4.8185E+03  0.0000E+00  5.0014E+02 -1.9840E+04  1.6592E+03  0.0000E+00  0.0000E+00  1.8681E+04  0.0000E+00
           6.5704E+04  0.0000E+00  0.0000E+00  0.0000E+00  9.0000E+01  9.0000E+01  9.0000E+01  0.0000E+00  2.2224E+00
 ------------------------------------------------------------------------------------------------------------------------
      170  3.1567E+03  2.8296E+02 -8.6435E+02 -2.1499E+03 -1.6650E+03  0.0000E+00  2.5732E+03  3.7724E+02  0.0000E+00
 170.000f  4.6216E+03  0.0000E+00 -1.0521E+03 -1.9641E+04  1.6498E+03  0.0000E+00  0.0000E+00  1.6939E+04  0.0000E+00
  16.200s  6.5704E+04  0.0000E+00  0.0000E+00  0.0000E+00  9.0000E+01  9.0000E+01  9.0000E+01  0.0000E+00  2.5097E+00

  rolling  3.1569E+03  3.1235E+02 -7.8749E+02 -2.1440E+03 -1.6574E+03  0.0000E+00  2.6270E+03  3.8687E+02  0.0000E+00
 averages  4.7443E+03  0.0000E+00  4.1013E+02 -1.9753E+04  1.6585E+03  0.0000E+00  0.0000E+00  1.8504E+04  0.0000E+00
           6.5704E+04  0.0000E+00  0.0000E+00  0.0000E+00  9.0000E+01  9.0000E+01  9.0000E+01  0.0000E+00  2.2236E+00
 ------------------------------------------------------------------------------------------------------------------------
      180  3.1569E+03  2.7926E+02 -9.0105E+02 -2.2051E+03 -1.6657E+03  0.0000E+00  2.5985E+03  3.7124E+02  0.0000E+00
 180.000f  3.5422E+03  0.0000E+00  1.8747E+03 -1.8932E+04  1.6499E+03  0.0000E+00  0.0000E+00  1.9157E+04  0.0000E+00
  17.127s  6.5704E+04  0.0000E+00  0.0000E+00  0.0000E+00  9.0000E+01  9.0000E+01  9.0000E+01  0.0000E+00  1.4635E+00

  rolling  3.1566E+03  3.0775E+02 -8.1505E+02 -2.1486E+03 -1.6592E+03  0.0000E+00  2.6062E+03  3.8656E+02  0.0000E+00
 averages  4.6181E+03  0.0000E+00  4.5570E+02 -1.9686E+04  1.6576E+03  0.0000E+00  0.0000E+00  1.8484E+04  0.0000E+00
           6.5704E+04  0.0000E+00  0.0000E+00  0.0000E+00  9.0000E+01  9.0000E+01  9.0000E+01  0.0000E+00  2.1729E+00
 ------------------------------------------------------------------------------------------------------------------------
      190  3.1565E+03  2.7815E+02 -9.6377E+02 -2.1905E+03 -1.6669E+03  0.0000E+00  2.5256E+03  3.6800E+02  0.0000E+00
 190.000f  4.2213E+03  0.0000E+00 -4.1147E+02 -1.9117E+04  1.6523E+03  0.0000E+00  0.0000E+00  1.7053E+04  0.0000E+00
  18.049s  6.5704E+04  0.0000E+00  0.0000E+00  0.0000E+00  9.0000E+01  9.0000E+01  9.0000E+01  0.0000E+00  2.2503E+00

  rolling  3.1563E+03  3.0354E+02 -8.4823E+02 -2.1541E+03 -1.6610E+03  0.0000E+00  2.5815E+03  3.8530E+02  0.0000E+00
 averages  4.5045E+03  0.0000E+00  4.6816E+02 -1.9608E+04  1.6567E+03  0.0000E+00  0.0000E+00  1.8420E+04  0.0000E+00
           6.5704E+04  0.0000E+00  0.0000E+00  0.0000E+00  9.0000E+01  9.0000E+01  9.0000E+01  0.0000E+00  2.1367E+00
 ------------------------------------------------------------------------------------------------------------------------
      200  3.1560E+03  2.7205E+02 -9.6910E+02 -2.2248E+03 -1.6693E+03  0.0000E+00  2.5540E+03  3.7100E+02  0.0000E+00
 200.000f  3.5353E+03  0.0000E+00  1.2986E+03 -1.8660E+04  1.6572E+03  0.0000E+00  0.0000E+00  1.8301E+04  0.0000E+00
  18.872s  6.5704E+04  0.0000E+00  0.0000E+00  0.0000E+00  9.0000E+01  9.0000E+01  9.0000E+01  0.0000E+00  1.6092E+00

  rolling  3.1559E+03  2.9965E+02 -8.8519E+02 -2.1592E+03 -1.6628E+03  0.0000E+00  2.5534E+03  3.8338E+02  0.0000E+00
 averages  4.4171E+03  0.0000E+00  4.0766E+02 -1.9538E+04  1.6564E+03  0.0000E+00  0.0000E+00  1.8289E+04  0.0000E+00
           6.5704E+04  0.0000E+00  0.0000E+00  0.0000E+00  9.0000E+01  9.0000E+01  9.0000E+01  0.0000E+00  2.1283E+00
 ------------------------------------------------------------------------------------------------------------------------
      210  3.1545E+03  2.7321E+02 -1.0492E+03 -2.1835E+03 -1.6724E+03  0.0000E+00  2.4292E+03  3.7743E+02  0.0000E+00
 210.000f  3.8431E+03  0.0000E+00  1.9788E+02 -1.9188E+04  1.6624E+03  0.0000E+00  0.0000E+00  1.7723E+04  0.0000E+00
  19.800s  6.5704E+04  0.0000E+00  0.0000E+00  0.0000E+00  9.0000E+01  9.0000E+01  9.0000E+01  0.0000E+00  2.0009E+00

  rolling  3.1555E+03  2.9536E+02 -9.1702E+02 -2.1645E+03 -1.6647E+03  0.0000E+00  2.5309E+03  3.8130E+02  0.0000E+00
 averages  4.2870E+03  0.0000E+00  4.6867E+02 -1.9462E+04  1.6565E+03  0.0000E+00  0.0000E+00  1.8274E+04  0.0000E+00
           6.5704E+04  0.0000E+00  0.0000E+00  0.0000E+00  9.0000E+01  9.0000E+01  9.0000E+01  0.0000E+00  2.0746E+00
 ------------------------------------------------------------------------------------------------------------------------
      220  3.1535E+03  2.7279E+02 -1.1055E+03 -2.2000E+03 -1.6737E+03  0.0000E+00  2.3895E+03  3.7877E+02  0.0000E+00
 220.000f  3.4520E+03  0.0000E+00  1.1795E+03 -1.8957E+04  1.6658E+03  0.0000E+00  0.0000E+00  1.8471E+04  0.0000E+00
  20.640s  6.5704E+04  0.0000E+00  0.0000E+00  0.0000E+00  9.0000E+01  9.0000E+01  9.0000E+01  0.0000E+00  1.6562E+00

  rolling  3.1552E+03  2.9144E+02 -9.5146E+02 -2.1677E+03 -1.6664E+03  0.0000E+00  2.5035E+03  3.7917E+02  0.0000E+00
 averages  4.2130E+03  0.0000E+00  3.7411E+02 -1.9416E+04  1.6568E+03  0.0000E+00  0.0000E+00  1.8133E+04  0.0000E+00
           6.5704E+04  0.0000E+00  0.0000E+00  0.0000E+00  9.0000E+01  9.0000E+01  9.0000E+01  0.0000E+00  2.0778E+00
 ------------------------------------------------------------------------------------------------------------------------
      230  3.1533E+03  2.6945E+02 -1.1243E+03 -2.2297E+03 -1.6741E+03  0.0000E+00  2.4028E+03  3.7672E+02  0.0000E+00
 230.000f  3.5777E+03  0.0000E+00  5.6391E+02 -1.8538E+04  1.6675E+03  0.0000E+00  0.0000E+00  1.7434E+04  0.0000E+00
  21.568s  6.5704E+04  0.0000E+00  0.0000E+00  0.0000E+00  9.0000E+01  9.0000E+01  9.0000E+01  0.0000E+00  1.8451E+00

  rolling  3.1548E+03  2.8769E+02 -9.8539E+02 -2.1778E+03 -1.6678E+03  0.0000E+00  2.4830E+03  3.7720E+02  0.0000E+00
 averages  4.0591E+03  0.0000E+00  5.2956E+02 -1.9277E+04  1.6573E+03  0.0000E+00  0.0000E+00  1.8149E+04  0.0000E+00
           6.5704E+04  0.0000E+00  0.0000E+00  0.0000E+00  9.0000E+01  9.0000E+01  9.0000E+01  0.0000E+00  1.9952E+00
 ------------------------------------------------------------------------------------------------------------------------
 ------------------------------------------------------------------------------------------------------------------------

     step     eng_tot    temp_tot     eng_cfg     eng_vdw     eng_cou     eng_bnd     eng_ang     eng_dih     eng_tet
 time          eng_pv    temp_rot     vir_cfg     vir_vdw     vir_cou     vir_bnd     vir_ang     vir_con     vir_tet
 cpu time      volume    temp_shl     eng_shl     vir_shl       alpha        beta       gamma     vir_pmf       press

 ------------------------------------------------------------------------------------------------------------------------
      240  3.1518E+03  2.7904E+02 -1.2797E+03 -2.2421E+03 -1.6738E+03  0.0000E+00  2.2634E+03  3.7271E+02  0.0000E+00
 240.000f  3.0272E+03  0.0000E+00  2.2712E+03 -1.8356E+04  1.6670E+03  0.0000E+00  0.0000E+00  1.8960E+04  0.0000E+00
  22.495s  6.5704E+04  0.0000E+00  0.0000E+00  0.0000E+00  9.0000E+01  9.0000E+01  9.0000E+01  0.0000E+00  1.3238E+00

  rolling  3.1545E+03  2.8416E+02 -1.0188E+03 -2.1854E+03 -1.6688E+03  0.0000E+00  2.4597E+03  3.7571E+02  0.0000E+00
 averages  3.9704E+03  0.0000E+00  5.0351E+02 -1.9168E+04  1.6579E+03  0.0000E+00  0.0000E+00  1.8014E+04  0.0000E+00
           6.5704E+04  0.0000E+00  0.0000E+00  0.0000E+00  9.0000E+01  9.0000E+01  9.0000E+01  0.0000E+00  1.9776E+00
 ------------------------------------------------------------------------------------------------------------------------
      250  3.1528E+03  2.7022E+02 -1.2268E+03 -2.2531E+03 -1.6731E+03  0.0000E+00  2.3266E+03  3.7270E+02  0.0000E+00
 250.000f  2.9757E+03  0.0000E+00  2.1048E+03 -1.8174E+04  1.6651E+03  0.0000E+00  0.0000E+00  1.8614E+04  0.0000E+00
  23.321s  6.5704E+04  0.0000E+00  0.0000E+00  0.0000E+00  9.0000E+01  9.0000E+01  9.0000E+01  0.0000E+00  1.3150E+00

  rolling  3.1542E+03  2.8073E+02 -1.0495E+03 -2.1954E+03 -1.6696E+03  0.0000E+00  2.4408E+03  3.7470E+02  0.0000E+00
 averages  3.7850E+03  0.0000E+00  7.8101E+02 -1.9026E+04  1.6586E+03  0.0000E+00  0.0000E+00  1.8148E+04  0.0000E+00
           6.5704E+04  0.0000E+00  0.0000E+00  0.0000E+00  9.0000E+01  9.0000E+01  9.0000E+01  0.0000E+00  1.8551E+00
 ------------------------------------------------------------------------------------------------------------------------
      260  3.1531E+03  2.6418E+02 -1.1994E+03 -2.2230E+03 -1.6724E+03  0.0000E+00  2.3226E+03  3.7335E+02  0.0000E+00
 260.000f  3.3773E+03  0.0000E+00  6.5323E+02 -1.8543E+04  1.6635E+03  0.0000E+00  0.0000E+00  1.7533E+04  0.0000E+00
  24.147s  6.5704E+04  0.0000E+00  0.0000E+00  0.0000E+00  9.0000E+01  9.0000E+01  9.0000E+01  0.0000E+00  1.7741E+00

  rolling  3.1539E+03  2.7806E+02 -1.0842E+03 -2.2072E+03 -1.6703E+03  0.0000E+00  2.4194E+03  3.7396E+02  0.0000E+00
 averages  3.6841E+03  0.0000E+00  8.3381E+02 -1.8857E+04  1.6595E+03  0.0000E+00  0.0000E+00  1.8031E+04  0.0000E+00
           6.5704E+04  0.0000E+00  0.0000E+00  0.0000E+00  9.0000E+01  9.0000E+01  9.0000E+01  0.0000E+00  1.8164E+00
 ------------------------------------------------------------------------------------------------------------------------
      270  3.1525E+03  2.6876E+02 -1.2815E+03 -2.2870E+03 -1.6748E+03  0.0000E+00  2.3122E+03  3.6811E+02  0.0000E+00
 270.000f  2.2874E+03  0.0000E+00  3.9257E+03 -1.7681E+04  1.6641E+03  0.0000E+00  0.0000E+00  1.9943E+04  0.0000E+00
  25.063s  6.5704E+04  0.0000E+00  0.0000E+00  0.0000E+00  9.0000E+01  9.0000E+01  9.0000E+01  0.0000E+00  6.7044E-01

  rolling  3.1536E+03  2.7568E+02 -1.1175E+03 -2.2184E+03 -1.6711E+03  0.0000E+00  2.3988E+03  3.7321E+02  0.0000E+00
 averages  3.4990E+03  0.0000E+00  1.1598E+03 -1.8694E+04  1.6608E+03  0.0000E+00  0.0000E+00  1.8193E+04  0.0000E+00
           6.5704E+04  0.0000E+00  0.0000E+00  0.0000E+00  9.0000E+01  9.0000E+01  9.0000E+01  0.0000E+00  1.6851E+00
 ------------------------------------------------------------------------------------------------------------------------
      280  3.1536E+03  2.5819E+02 -1.1909E+03 -2.2560E+03 -1.6790E+03  0.0000E+00  2.3832E+03  3.6096E+02  0.0000E+00
 280.000f  3.3823E+03  0.0000E+00  3.3745E+02 -1.8076E+04  1.6665E+03  0.0000E+00  0.0000E+00  1.6747E+04  0.0000E+00
  25.982s  6.5704E+04  0.0000E+00  0.0000E+00  0.0000E+00  9.0000E+01  9.0000E+01  9.0000E+01  0.0000E+00  1.8386E+00

  rolling  3.1534E+03  2.7317E+02 -1.1444E+03 -2.2273E+03 -1.6723E+03  0.0000E+00  2.3830E+03  3.7226E+02  0.0000E+00
 averages  3.4045E+03  0.0000E+00  1.2261E+03 -1.8560E+04  1.6623E+03  0.0000E+00  0.0000E+00  1.8124E+04  0.0000E+00
           6.5704E+04  0.0000E+00  0.0000E+00  0.0000E+00  9.0000E+01  9.0000E+01  9.0000E+01  0.0000E+00  1.6430E+00
 ------------------------------------------------------------------------------------------------------------------------
      290  3.1533E+03  2.6458E+02 -1.2803E+03 -2.3222E+03 -1.6829E+03  0.0000E+00  2.3693E+03  3.5550E+02  0.0000E+00
 290.000f  2.1418E+03  0.0000E+00  4.1387E+03 -1.7180E+04  1.6690E+03  0.0000E+00  0.0000E+00  1.9649E+04  0.0000E+00
  26.813s  6.5704E+04  0.0000E+00  0.0000E+00  0.0000E+00  9.0000E+01  9.0000E+01  9.0000E+01  0.0000E+00  5.6472E-01

  rolling  3.1532E+03  2.7146E+02 -1.1746E+03 -2.2367E+03 -1.6738E+03  0.0000E+00  2.3648E+03  3.7113E+02  0.0000E+00
 averages  3.2726E+03  0.0000E+00  1.4381E+03 -1.8416E+04  1.6640E+03  0.0000E+00  0.0000E+00  1.8190E+04  0.0000E+00
           6.5704E+04  0.0000E+00  0.0000E+00  0.0000E+00  9.0000E+01  9.0000E+01  9.0000E+01  0.0000E+00  1.5563E+00
 ------------------------------------------------------------------------------------------------------------------------
      300  3.1528E+03  2.6896E+02 -1.3418E+03 -2.3145E+03 -1.6884E+03  0.0000E+00  2.3079E+03  3.5312E+02  0.0000E+00
 300.000f  3.0380E+03  0.0000E+00  1.5038E+03 -1.7279E+04  1.6734E+03  0.0000E+00  0.0000E+00  1.7109E+04  0.0000E+00
  27.723s  6.5704E+04  0.0000E+00  0.0000E+00  0.0000E+00  9.0000E+01  9.0000E+01  9.0000E+01  0.0000E+00  1.5144E+00

  rolling  3.1530E+03  2.6977E+02 -1.1994E+03 -2.2471E+03 -1.6756E+03  0.0000E+00  2.3536E+03  3.6968E+02  0.0000E+00
 averages  3.1562E+03  0.0000E+00  1.6211E+03 -1.8258E+04  1.6657E+03  0.0000E+00  0.0000E+00  1.8214E+04  0.0000E+00
           6.5704E+04  0.0000E+00  0.0000E+00  0.0000E+00  9.0000E+01  9.0000E+01  9.0000E+01  0.0000E+00  1.4798E+00
 ------------------------------------------------------------------------------------------------------------------------
      310  3.1539E+03  2.5743E+02 -1.2232E+03 -2.3034E+03 -1.6933E+03  0.0000E+00  2.4192E+03  3.5421E+02  0.0000E+00
 310.000f  2.1633E+03  0.0000E+00  3.8561E+03 -1.7395E+04  1.6782E+03  0.0000E+00  0.0000E+00  1.9573E+04  0.0000E+00
  28.534s  6.5704E+04  0.0000E+00  0.0000E+00  0.0000E+00  9.0000E+01  9.0000E+01  9.0000E+01  0.0000E+00  6.0881E-01

  rolling  3.1528E+03  2.6876E+02 -1.2256E+03 -2.2563E+03 -1.6776E+03  0.0000E+00  2.3407E+03  3.6759E+02  0.0000E+00
 averages  3.0548E+03  0.0000E+00  1.7911E+03 -1.8116E+04  1.6672E+03  0.0000E+00  0.0000E+00  1.8240E+04  0.0000E+00
           6.5704E+04  0.0000E+00  0.0000E+00  0.0000E+00  9.0000E+01  9.0000E+01  9.0000E+01  0.0000E+00  1.4130E+00
 ------------------------------------------------------------------------------------------------------------------------
 ------------------------------------------------------------------------------------------------------------------------

     step     eng_tot    temp_tot     eng_cfg     eng_vdw     eng_cou     eng_bnd     eng_ang     eng_dih     eng_tet
 time          eng_pv    temp_rot     vir_cfg     vir_vdw     vir_cou     vir_bnd     vir_ang     vir_con     vir_tet
 cpu time      volume    temp_shl     eng_shl     vir_shl       alpha        beta       gamma     vir_pmf       press

 ------------------------------------------------------------------------------------------------------------------------
      320  3.1528E+03  2.6577E+02 -1.3168E+03 -2.3014E+03 -1.6973E+03  0.0000E+00  2.3270E+03  3.5486E+02  0.0000E+00
 320.000f  3.0566E+03  0.0000E+00  1.3500E+03 -1.7441E+04  1.6847E+03  0.0000E+00  0.0000E+00  1.7107E+04  0.0000E+00
  29.438s  6.5704E+04  0.0000E+00  0.0000E+00  0.0000E+00  9.0000E+01  9.0000E+01  9.0000E+01  0.0000E+00  1.5438E+00

  rolling  3.1526E+03  2.6849E+02 -1.2543E+03 -2.2699E+03 -1.6798E+03  0.0000E+00  2.3302E+03  3.6515E+02  0.0000E+00
 averages  2.9133E+03  0.0000E+00  2.1151E+03 -1.7919E+04  1.6690E+03  0.0000E+00  0.0000E+00  1.8365E+04  0.0000E+00
           6.5704E+04  0.0000E+00  0.0000E+00  0.0000E+00  9.0000E+01  9.0000E+01  9.0000E+01  0.0000E+00  1.2983E+00
 ------------------------------------------------------------------------------------------------------------------------
      330  3.1527E+03  2.6651E+02 -1.3205E+03 -2.2995E+03 -1.7024E+03  0.0000E+00  2.3233E+03  3.5805E+02  0.0000E+00
 330.000f  2.3897E+03  0.0000E+00  3.3797E+03 -1.7453E+04  1.6920E+03  0.0000E+00  0.0000E+00  1.9141E+04  0.0000E+00
  30.240s  6.5704E+04  0.0000E+00  0.0000E+00  0.0000E+00  9.0000E+01  9.0000E+01  9.0000E+01  0.0000E+00  8.4336E-01

  rolling  3.1526E+03  2.6760E+02 -1.2702E+03 -2.2763E+03 -1.6824E+03  0.0000E+00  2.3254E+03  3.6306E+02  0.0000E+00
 averages  2.8884E+03  0.0000E+00  2.0941E+03 -1.7816E+04  1.6712E+03  0.0000E+00  0.0000E+00  1.8239E+04  0.0000E+00
           6.5704E+04  0.0000E+00  0.0000E+00  0.0000E+00  9.0000E+01  9.0000E+01  9.0000E+01  0.0000E+00  1.2989E+00
 ------------------------------------------------------------------------------------------------------------------------
      340  3.1532E+03  2.6208E+02 -1.2611E+03 -2.2518E+03 -1.7074E+03  0.0000E+00  2.3378E+03  3.6029E+02  0.0000E+00
 340.000f  2.9395E+03  0.0000E+00  1.6669E+03 -1.8094E+04  1.6972E+03  0.0000E+00  0.0000E+00  1.8064E+04  0.0000E+00
  31.061s  6.5704E+04  0.0000E+00  0.0000E+00  0.0000E+00  9.0000E+01  9.0000E+01  9.0000E+01  0.0000E+00  1.4056E+00

  rolling  3.1525E+03  2.6725E+02 -1.2859E+03 -2.2819E+03 -1.6855E+03  0.0000E+00  2.3201E+03  3.6153E+02  0.0000E+00
 averages  2.7571E+03  0.0000E+00  2.4215E+03 -1.7728E+04  1.6739E+03  0.0000E+00  0.0000E+00  1.8475E+04  0.0000E+00
           6.5704E+04  0.0000E+00  0.0000E+00  0.0000E+00  9.0000E+01  9.0000E+01  9.0000E+01  0.0000E+00  1.1823E+00
 ------------------------------------------------------------------------------------------------------------------------
      350  3.1516E+03  2.7506E+02 -1.3873E+03 -2.2864E+03 -1.7087E+03  0.0000E+00  2.2443E+03  3.6363E+02  0.0000E+00
 350.000f  2.7489E+03  0.0000E+00  2.5670E+03 -1.7634E+04  1.6986E+03  0.0000E+00  0.0000E+00  1.8502E+04  0.0000E+00
  31.981s  6.5704E+04  0.0000E+00  0.0000E+00  0.0000E+00  9.0000E+01  9.0000E+01  9.0000E+01  0.0000E+00  1.1908E+00

  rolling  3.1524E+03  2.6720E+02 -1.2988E+03 -2.2843E+03 -1.6890E+03  0.0000E+00  2.3141E+03  3.6044E+02  0.0000E+00
 averages  2.7840E+03  0.0000E+00  2.2992E+03 -1.7685E+04  1.6772E+03  0.0000E+00  0.0000E+00  1.8307E+04  0.0000E+00
           6.5704E+04  0.0000E+00  0.0000E+00  0.0000E+00  9.0000E+01  9.0000E+01  9.0000E+01  0.0000E+00  1.2244E+00
 ------------------------------------------------------------------------------------------------------------------------
      360  3.1526E+03  2.6771E+02 -1.2841E+03 -2.2495E+03 -1.7106E+03  0.0000E+00  2.3096E+03  3.6650E+02  0.0000E+00
 360.000f  2.8565E+03  0.0000E+00  2.1538E+03 -1.8133E+04  1.6989E+03  0.0000E+00  0.0000E+00  1.8588E+04  0.0000E+00
  32.809s  6.5704E+04  0.0000E+00  0.0000E+00  0.0000E+00  9.0000E+01  9.0000E+01  9.0000E+01  0.0000E+00  1.2789E+00

  rolling  3.1524E+03  2.6687E+02 -1.3025E+03 -2.2866E+03 -1.6927E+03  0.0000E+00  2.3171E+03  3.5965E+02  0.0000E+00
 averages  2.7139E+03  0.0000E+00  2.4804E+03 -1.7647E+04  1.6806E+03  0.0000E+00  0.0000E+00  1.8446E+04  0.0000E+00
           6.5704E+04  0.0000E+00  0.0000E+00  0.0000E+00  9.0000E+01  9.0000E+01  9.0000E+01  0.0000E+00  1.1589E+00
 ------------------------------------------------------------------------------------------------------------------------
      370  3.1521E+03  2.7271E+02 -1.3104E+03 -2.2661E+03 -1.7132E+03  0.0000E+00  2.3038E+03  3.6511E+02  0.0000E+00
 370.000f  2.8689E+03  0.0000E+00  2.3096E+03 -1.7913E+04  1.6992E+03  0.0000E+00  0.0000E+00  1.8524E+04  0.0000E+00
  33.724s  6.5704E+04  0.0000E+00  0.0000E+00  0.0000E+00  9.0000E+01  9.0000E+01  9.0000E+01  0.0000E+00  1.2625E+00

  rolling  3.1524E+03  2.6771E+02 -1.3130E+03 -2.2863E+03 -1.6966E+03  0.0000E+00  2.3107E+03  3.5915E+02  0.0000E+00
 averages  2.7468E+03  0.0000E+00  2.3960E+03 -1.7646E+04  1.6842E+03  0.0000E+00  0.0000E+00  1.8358E+04  0.0000E+00
           6.5704E+04  0.0000E+00  0.0000E+00  0.0000E+00  9.0000E+01  9.0000E+01  9.0000E+01  0.0000E+00  1.1946E+00
 ------------------------------------------------------------------------------------------------------------------------
      380  3.1519E+03  2.7934E+02 -1.3492E+03 -2.2860E+03 -1.7140E+03  0.0000E+00  2.2872E+03  3.6353E+02  0.0000E+00
 380.000f  2.5384E+03  0.0000E+00  3.5456E+03 -1.7681E+04  1.6984E+03  0.0000E+00  0.0000E+00  1.9529E+04  0.0000E+00
  34.632s  6.5704E+04  0.0000E+00  0.0000E+00  0.0000E+00  9.0000E+01  9.0000E+01  9.0000E+01  0.0000E+00  8.8282E-01

  rolling  3.1524E+03  2.6851E+02 -1.3170E+03 -2.2881E+03 -1.7003E+03  0.0000E+00  2.3122E+03  3.5918E+02  0.0000E+00
 averages  2.6968E+03  0.0000E+00  2.5776E+03 -1.7620E+04  1.6875E+03  0.0000E+00  0.0000E+00  1.8510E+04  0.0000E+00
           6.5704E+04  0.0000E+00  0.0000E+00  0.0000E+00  9.0000E+01  9.0000E+01  9.0000E+01  0.0000E+00  1.1375E+00
 ------------------------------------------------------------------------------------------------------------------------
      390  3.1535E+03  2.7103E+02 -1.2185E+03 -2.2635E+03 -1.7151E+03  0.0000E+00  2.3973E+03  3.6293E+02  0.0000E+00
 390.000f  3.4023E+03  0.0000E+00  8.9387E+02 -1.7975E+04  1.6999E+03  0.0000E+00  0.0000E+00  1.7169E+04  0.0000E+00
  35.441s  6.5704E+04  0.0000E+00  0.0000E+00  0.0000E+00  9.0000E+01  9.0000E+01  9.0000E+01  0.0000E+00  1.7423E+00

  rolling  3.1525E+03  2.6898E+02 -1.3114E+03 -2.2849E+03 -1.7036E+03  0.0000E+00  2.3174E+03  3.5976E+02  0.0000E+00
 averages  2.7636E+03  0.0000E+00  2.4194E+03 -1.7663E+04  1.6907E+03  0.0000E+00  0.0000E+00  1.8392E+04  0.0000E+00
           6.5704E+04  0.0000E+00  0.0000E+00  0.0000E+00  9.0000E+01  9.0000E+01  9.0000E+01  0.0000E+00  1.1961E+00
 ------------------------------------------------------------------------------------------------------------------------
 ------------------------------------------------------------------------------------------------------------------------

     step     eng_tot    temp_tot     eng_cfg     eng_vdw     eng_cou     eng_bnd     eng_ang     eng_dih     eng_tet
 time          eng_pv    temp_rot     vir_cfg     vir_vdw     vir_cou     vir_bnd     vir_ang     vir_con     vir_tet
 cpu time      volume    temp_shl     eng_shl     vir_shl       alpha        beta       gamma     vir_pmf       press

 ------------------------------------------------------------------------------------------------------------------------
      400  3.1532E+03  2.7933E+02 -1.2653E+03 -2.2874E+03 -1.7168E+03  0.0000E+00  2.3770E+03  3.6180E+02  0.0000E+00
 400.000f  2.3867E+03  0.0000E+00  4.2522E+03 -1.7677E+04  1.7032E+03  0.0000E+00  0.0000E+00  2.0226E+04  0.0000E+00
  36.335s  6.5704E+04  0.0000E+00  0.0000E+00  0.0000E+00  9.0000E+01  9.0000E+01  9.0000E+01  0.0000E+00  6.3698E-01

  rolling  3.1525E+03  2.7009E+02 -1.3071E+03 -2.2814E+03 -1.7066E+03  0.0000E+00  2.3204E+03  3.6048E+02  0.0000E+00
 averages  2.7515E+03  0.0000E+00  2.5291E+03 -1.7713E+04  1.6937E+03  0.0000E+00  0.0000E+00  1.8548E+04  0.0000E+00
           6.5704E+04  0.0000E+00  0.0000E+00  0.0000E+00  9.0000E+01  9.0000E+01  9.0000E+01  0.0000E+00  1.1663E+00
 ------------------------------------------------------------------------------------------------------------------------
      410  3.1538E+03  2.8147E+02 -1.2401E+03 -2.2764E+03 -1.7166E+03  0.0000E+00  2.3918E+03  3.6112E+02  0.0000E+00
 410.000f  3.5446E+03  0.0000E+00  9.7051E+02 -1.7848E+04  1.7044E+03  0.0000E+00  0.0000E+00  1.7114E+04  0.0000E+00
  37.155s  6.5704E+04  0.0000E+00  0.0000E+00  0.0000E+00  9.0000E+01  9.0000E+01  9.0000E+01  0.0000E+00  1.7947E+00

  rolling  3.1526E+03  2.7118E+02 -1.2968E+03 -2.2777E+03 -1.7092E+03  0.0000E+00  2.3288E+03  3.6128E+02  0.0000E+00
 averages  2.8192E+03  0.0000E+00  2.4159E+03 -1.7769E+04  1.6965E+03  0.0000E+00  0.0000E+00  1.8488E+04  0.0000E+00
           6.5704E+04  0.0000E+00  0.0000E+00  0.0000E+00  9.0000E+01  9.0000E+01  9.0000E+01  0.0000E+00  1.2140E+00
 ------------------------------------------------------------------------------------------------------------------------
      420  3.1550E+03  2.8027E+02 -1.1735E+03 -2.2723E+03 -1.7152E+03  0.0000E+00  2.4512E+03  3.6284E+02  0.0000E+00
 420.000f  2.7099E+03  0.0000E+00  3.6088E+03 -1.7899E+04  1.7053E+03  0.0000E+00  0.0000E+00  1.9802E+04  0.0000E+00
  38.074s  6.5704E+04  0.0000E+00  0.0000E+00  0.0000E+00  9.0000E+01  9.0000E+01  9.0000E+01  0.0000E+00  8.6787E-01

  rolling  3.1528E+03  2.7291E+02 -1.2880E+03 -2.2749E+03 -1.7112E+03  0.0000E+00  2.3360E+03  3.6207E+02  0.0000E+00
 averages  2.8797E+03  0.0000E+00  2.3552E+03 -1.7814E+04  1.6988E+03  0.0000E+00  0.0000E+00  1.8470E+04  0.0000E+00
           6.5704E+04  0.0000E+00  0.0000E+00  0.0000E+00  9.0000E+01  9.0000E+01  9.0000E+01  0.0000E+00  1.2482E+00
 ------------------------------------------------------------------------------------------------------------------------
      430  3.1538E+03  2.8850E+02 -1.2091E+03 -2.2363E+03 -1.7159E+03  0.0000E+00  2.3775E+03  3.6551E+02  0.0000E+00
 430.000f  3.6434E+03  0.0000E+00  1.1495E+03 -1.8405E+04  1.7070E+03  0.0000E+00  0.0000E+00  1.7847E+04  0.0000E+00
  38.993s  6.5704E+04  0.0000E+00  0.0000E+00  0.0000E+00  9.0000E+01  9.0000E+01  9.0000E+01  0.0000E+00  1.7857E+00

  rolling  3.1529E+03  2.7531E+02 -1.2814E+03 -2.2721E+03 -1.7128E+03  0.0000E+00  2.3406E+03  3.6288E+02  0.0000E+00
 averages  2.8852E+03  0.0000E+00  2.4893E+03 -1.7862E+04  1.7006E+03  0.0000E+00  0.0000E+00  1.8651E+04  0.0000E+00
           6.5704E+04  0.0000E+00  0.0000E+00  0.0000E+00  9.0000E+01  9.0000E+01  9.0000E+01  0.0000E+00  1.2197E+00
 ------------------------------------------------------------------------------------------------------------------------
      440  3.1542E+03  2.8772E+02 -1.1430E+03 -2.2526E+03 -1.7154E+03  0.0000E+00  2.4566E+03  3.6835E+02  0.0000E+00
 440.000f  3.0976E+03  0.0000E+00  2.9432E+03 -1.8204E+04  1.7081E+03  0.0000E+00  0.0000E+00  1.9439E+04  0.0000E+00
  39.817s  6.5704E+04  0.0000E+00  0.0000E+00  0.0000E+00  9.0000E+01  9.0000E+01  9.0000E+01  0.0000E+00  1.1559E+00

  rolling  3.1531E+03  2.7722E+02 -1.2644E+03 -2.2685E+03 -1.7138E+03  0.0000E+00  2.3542E+03  3.6367E+02  0.0000E+00
 averages  3.0035E+03  0.0000E+00  2.2892E+03 -1.7921E+04  1.7018E+03  0.0000E+00  0.0000E+00  1.8508E+04  0.0000E+00
           6.5704E+04  0.0000E+00  0.0000E+00  0.0000E+00  9.0000E+01  9.0000E+01  9.0000E+01  0.0000E+00  1.3038E+00
 ------------------------------------------------------------------------------------------------------------------------
      450  3.1546E+03  2.9013E+02 -1.1090E+03 -2.1913E+03 -1.7156E+03  0.0000E+00  2.4286E+03  3.6933E+02  0.0000E+00
 450.000f  4.1608E+03  0.0000E+00 -1.3098E+01 -1.9033E+04  1.7094E+03  0.0000E+00  0.0000E+00  1.7311E+04  0.0000E+00
  40.647s  6.5704E+04  0.0000E+00  0.0000E+00  0.0000E+00  9.0000E+01  9.0000E+01  9.0000E+01  0.0000E+00  2.2025E+00

  rolling  3.1532E+03  2.7951E+02 -1.2472E+03 -2.2639E+03 -1.7145E+03  0.0000E+00  2.3668E+03  3.6438E+02  0.0000E+00
 averages  3.0347E+03  0.0000E+00  2.3724E+03 -1.7996E+04  1.7029E+03  0.0000E+00  0.0000E+00  1.8665E+04  0.0000E+00
           6.5704E+04  0.0000E+00  0.0000E+00  0.0000E+00  9.0000E+01  9.0000E+01  9.0000E+01  0.0000E+00  1.2923E+00
 ------------------------------------------------------------------------------------------------------------------------
      460  3.1545E+03  2.9572E+02 -1.1084E+03 -2.2300E+03 -1.7154E+03  0.0000E+00  2.4669E+03  3.7013E+02  0.0000E+00
 460.000f  3.2318E+03  0.0000E+00  3.0797E+03 -1.8531E+04  1.7067E+03  0.0000E+00  0.0000E+00  1.9904E+04  0.0000E+00
  41.561s  6.5704E+04  0.0000E+00  0.0000E+00  0.0000E+00  9.0000E+01  9.0000E+01  9.0000E+01  0.0000E+00  1.1690E+00

  rolling  3.1534E+03  2.8203E+02 -1.2284E+03 -2.2570E+03 -1.7151E+03  0.0000E+00  2.3789E+03  3.6480E+02  0.0000E+00
 averages  3.1669E+03  0.0000E+00  2.1695E+03 -1.8100E+04  1.7039E+03  0.0000E+00  0.0000E+00  1.8566E+04  0.0000E+00
           6.5704E+04  0.0000E+00  0.0000E+00  0.0000E+00  9.0000E+01  9.0000E+01  9.0000E+01  0.0000E+00  1.3820E+00
 ------------------------------------------------------------------------------------------------------------------------
      470  3.1552E+03  2.9583E+02 -1.0457E+03 -2.1751E+03 -1.7164E+03  0.0000E+00  2.4758E+03  3.7000E+02  0.0000E+00
 470.000f  4.3934E+03  0.0000E+00 -2.1117E+02 -1.9281E+04  1.7055E+03  0.0000E+00  0.0000E+00  1.7365E+04  0.0000E+00
  42.470s  6.5704E+04  0.0000E+00  0.0000E+00  0.0000E+00  9.0000E+01  9.0000E+01  9.0000E+01  0.0000E+00  2.3146E+00

  rolling  3.1537E+03  2.8438E+02 -1.2038E+03 -2.2523E+03 -1.7155E+03  0.0000E+00  2.3988E+03  3.6520E+02  0.0000E+00
 averages  3.2126E+03  0.0000E+00  2.2335E+03 -1.8178E+04  1.7045E+03  0.0000E+00  0.0000E+00  1.8707E+04  0.0000E+00
           6.5704E+04  0.0000E+00  0.0000E+00  0.0000E+00  9.0000E+01  9.0000E+01  9.0000E+01  0.0000E+00  1.3774E+00
 ------------------------------------------------------------------------------------------------------------------------
 ------------------------------------------------------------------------------------------------------------------------

     step     eng_tot    temp_tot     eng_cfg     eng_vdw     eng_cou     eng_bnd     eng_ang     eng_dih     eng_tet
 time          eng_pv    temp_rot     vir_cfg     vir_vdw     vir_cou     vir_bnd     vir_ang     vir_con     vir_tet
 cpu time      volume    temp_shl     eng_shl     vir_shl       alpha        beta       gamma     vir_pmf       press

 ------------------------------------------------------------------------------------------------------------------------
      480  3.1546E+03  3.0275E+02 -1.0577E+03 -2.1921E+03 -1.7154E+03  0.0000E+00  2.4793E+03  3.7054E+02  0.0000E+00
 480.000f  3.9401E+03  0.0000E+00  1.4896E+03 -1.9068E+04  1.7033E+03  0.0000E+00  0.0000E+00  1.8855E+04  0.0000E+00
  43.273s  6.5704E+04  0.0000E+00  0.0000E+00  0.0000E+00  9.0000E+01  9.0000E+01  9.0000E+01  0.0000E+00  1.7753E+00

  rolling  3.1539E+03  2.8708E+02 -1.1800E+03 -2.2416E+03 -1.7157E+03  0.0000E+00  2.4115E+03  3.6578E+02  0.0000E+00
 averages  3.4121E+03  0.0000E+00  1.8538E+03 -1.8335E+04  1.7051E+03  0.0000E+00  0.0000E+00  1.8484E+04  0.0000E+00
           6.5704E+04  0.0000E+00  0.0000E+00  0.0000E+00  9.0000E+01  9.0000E+01  9.0000E+01  0.0000E+00  1.5300E+00
 ------------------------------------------------------------------------------------------------------------------------
      490  3.1554E+03  3.0197E+02 -9.8474E+02 -2.1720E+03 -1.7139E+03  0.0000E+00  2.5296E+03  3.7164E+02  0.0000E+00
 490.000f  4.1571E+03  0.0000E+00  1.0151E+03 -1.9346E+04  1.6995E+03  0.0000E+00  0.0000E+00  1.8662E+04  0.0000E+00
  44.172s  6.5704E+04  0.0000E+00  0.0000E+00  0.0000E+00  9.0000E+01  9.0000E+01  9.0000E+01  0.0000E+00  1.9346E+00

  rolling  3.1542E+03  2.8953E+02 -1.1506E+03 -2.2335E+03 -1.7157E+03  0.0000E+00  2.4321E+03  3.6660E+02  0.0000E+00
 averages  3.4629E+03  0.0000E+00  1.9229E+03 -1.8456E+04  1.7053E+03  0.0000E+00  0.0000E+00  1.8673E+04  0.0000E+00
           6.5704E+04  0.0000E+00  0.0000E+00  0.0000E+00  9.0000E+01  9.0000E+01  9.0000E+01  0.0000E+00  1.5245E+00
 ------------------------------------------------------------------------------------------------------------------------
      500  3.1555E+03  3.0521E+02 -9.5573E+02 -2.1803E+03 -1.7112E+03  0.0000E+00  2.5638E+03  3.7194E+02  0.0000E+00
 500.000f  4.4774E+03  0.0000E+00  3.1775E+02 -1.9232E+04  1.6935E+03  0.0000E+00  0.0000E+00  1.7856E+04  0.0000E+00
  45.087s  6.5704E+04  0.0000E+00  0.0000E+00  0.0000E+00  9.0000E+01  9.0000E+01  9.0000E+01  0.0000E+00  2.2017E+00

  rolling  3.1544E+03  2.9224E+02 -1.1219E+03 -2.2223E+03 -1.7154E+03  0.0000E+00  2.4482E+03  3.6765E+02  0.0000E+00
 averages  3.6632E+03  0.0000E+00  1.5558E+03 -1.8620E+04  1.7048E+03  0.0000E+00  0.0000E+00  1.8471E+04  0.0000E+00
           6.5704E+04  0.0000E+00  0.0000E+00  0.0000E+00  9.0000E+01  9.0000E+01  9.0000E+01  0.0000E+00  1.6727E+00
 ------------------------------------------------------------------------------------------------------------------------
      510  3.1556E+03  3.1227E+02 -9.6957E+02 -2.1851E+03 -1.7072E+03  0.0000E+00  2.5533E+03  3.6945E+02  0.0000E+00
 510.000f  4.0951E+03  0.0000E+00  1.8073E+03 -1.9183E+04  1.6889E+03  0.0000E+00  0.0000E+00  1.9302E+04  0.0000E+00
  45.928s  6.5704E+04  0.0000E+00  0.0000E+00  0.0000E+00  9.0000E+01  9.0000E+01  9.0000E+01  0.0000E+00  1.7370E+00

  rolling  3.1547E+03  2.9501E+02 -1.0920E+03 -2.2135E+03 -1.7146E+03  0.0000E+00  2.4675E+03  3.6859E+02  0.0000E+00
 averages  3.7465E+03  0.0000E+00  1.5464E+03 -1.8749E+04  1.7035E+03  0.0000E+00  0.0000E+00  1.8592E+04  0.0000E+00
           6.5704E+04  0.0000E+00  0.0000E+00  0.0000E+00  9.0000E+01  9.0000E+01  9.0000E+01  0.0000E+00  1.6970E+00
 ------------------------------------------------------------------------------------------------------------------------
      520  3.1564E+03  3.1162E+02 -9.0052E+02 -2.1351E+03 -1.7020E+03  0.0000E+00  2.5684E+03  3.6808E+02  0.0000E+00
 520.000f  5.0967E+03  0.0000E+00 -1.0255E+03 -1.9826E+04  1.6833E+03  0.0000E+00  0.0000E+00  1.7117E+04  0.0000E+00
  46.859s  6.5704E+04  0.0000E+00  0.0000E+00  0.0000E+00  9.0000E+01  9.0000E+01  9.0000E+01  0.0000E+00  2.7175E+00

  rolling  3.1549E+03  2.9769E+02 -1.0599E+03 -2.2002E+03 -1.7135E+03  0.0000E+00  2.4845E+03  3.6924E+02  0.0000E+00
 averages  3.9370E+03  0.0000E+00  1.2167E+03 -1.8937E+04  1.7016E+03  0.0000E+00  0.0000E+00  1.8452E+04  0.0000E+00
           6.5704E+04  0.0000E+00  0.0000E+00  0.0000E+00  9.0000E+01  9.0000E+01  9.0000E+01  0.0000E+00  1.8320E+00
 ------------------------------------------------------------------------------------------------------------------------
      530  3.1564E+03  3.1623E+02 -8.9234E+02 -2.1746E+03 -1.6977E+03  0.0000E+00  2.6087E+03  3.7125E+02  0.0000E+00
 530.000f  4.0337E+03  0.0000E+00  2.4387E+03 -1.9311E+04  1.6786E+03  0.0000E+00  0.0000E+00  2.0071E+04  0.0000E+00
  47.789s  6.5704E+04  0.0000E+00  0.0000E+00  0.0000E+00  9.0000E+01  9.0000E+01  9.0000E+01  0.0000E+00  1.5473E+00

  rolling  3.1552E+03  3.0047E+02 -1.0284E+03 -2.1904E+03 -1.7119E+03  0.0000E+00  2.5042E+03  3.6974E+02  0.0000E+00
 averages  4.0603E+03  0.0000E+00  1.0930E+03 -1.9075E+04  1.6990E+03  0.0000E+00  0.0000E+00  1.8469E+04  0.0000E+00
           6.5704E+04  0.0000E+00  0.0000E+00  0.0000E+00  9.0000E+01  9.0000E+01  9.0000E+01  0.0000E+00  1.8961E+00
 ------------------------------------------------------------------------------------------------------------------------
      540  3.1564E+03  3.1860E+02 -8.6382E+02 -2.0975E+03 -1.6957E+03  0.0000E+00  2.5526E+03  3.7675E+02  0.0000E+00
 540.000f  5.7118E+03  0.0000E+00 -2.3807E+03 -2.0339E+04  1.6798E+03  0.0000E+00  0.0000E+00  1.6279E+04  0.0000E+00
  48.712s  6.5704E+04  0.0000E+00  0.0000E+00  0.0000E+00  9.0000E+01  9.0000E+01  9.0000E+01  0.0000E+00  3.2418E+00

  rolling  3.1555E+03  3.0316E+02 -9.9588E+02 -2.1788E+03 -1.7100E+03  0.0000E+00  2.5224E+03  3.7049E+02  0.0000E+00
 averages  4.2311E+03  0.0000E+00  8.2447E+02 -1.9238E+04  1.6961E+03  0.0000E+00  0.0000E+00  1.8367E+04  0.0000E+00
           6.5704E+04  0.0000E+00  0.0000E+00  0.0000E+00  9.0000E+01  9.0000E+01  9.0000E+01  0.0000E+00  2.0099E+00
 ------------------------------------------------------------------------------------------------------------------------
      550  3.1571E+03  3.1919E+02 -8.1879E+02 -2.1455E+03 -1.6939E+03  0.0000E+00  2.6397E+03  3.8103E+02  0.0000E+00
 550.000f  4.2231E+03  0.0000E+00  2.2523E+03 -1.9719E+04  1.6815E+03  0.0000E+00  0.0000E+00  2.0290E+04  0.0000E+00
  49.620s  6.5704E+04  0.0000E+00  0.0000E+00  0.0000E+00  9.0000E+01  9.0000E+01  9.0000E+01  0.0000E+00  1.6346E+00

  rolling  3.1558E+03  3.0601E+02 -9.6574E+02 -2.1696E+03 -1.7079E+03  0.0000E+00  2.5402E+03  3.7153E+02  0.0000E+00
 averages  4.3659E+03  0.0000E+00  6.6549E+02 -1.9367E+04  1.6933E+03  0.0000E+00  0.0000E+00  1.8340E+04  0.0000E+00
           6.5704E+04  0.0000E+00  0.0000E+00  0.0000E+00  9.0000E+01  9.0000E+01  9.0000E+01  0.0000E+00  2.0867E+00
 ------------------------------------------------------------------------------------------------------------------------
 ------------------------------------------------------------------------------------------------------------------------

     step     eng_tot    temp_tot     eng_cfg     eng_vdw     eng_cou     eng_bnd     eng_ang     eng_dih     eng_tet
 time          eng_pv    temp_rot     vir_cfg     vir_vdw     vir_cou     vir_bnd     vir_ang     vir_con     vir_tet
 cpu time      volume    temp_shl     eng_shl     vir_shl       alpha        beta       gamma     vir_pmf       press

 ------------------------------------------------------------------------------------------------------------------------
      560  3.1561E+03  3.3118E+02 -9.0447E+02 -2.1197E+03 -1.6939E+03  0.0000E+00  2.5269E+03  3.8224E+02  0.0000E+00
 560.000f  5.5923E+03  0.0000E+00 -1.4592E+03 -2.0072E+04  1.6863E+03  0.0000E+00  0.0000E+00  1.6926E+04  0.0000E+00
  50.425s  6.5704E+04  0.0000E+00  0.0000E+00  0.0000E+00  9.0000E+01  9.0000E+01  9.0000E+01  0.0000E+00  3.0166E+00

  rolling  3.1560E+03  3.0908E+02 -9.3937E+02 -2.1622E+03 -1.7057E+03  0.0000E+00  2.5558E+03  3.7279E+02  0.0000E+00
 averages  4.4641E+03  0.0000E+00  6.1759E+02 -1.9474E+04  1.6909E+03  0.0000E+00  0.0000E+00  1.8400E+04  0.0000E+00
           6.5704E+04  0.0000E+00  0.0000E+00  0.0000E+00  9.0000E+01  9.0000E+01  9.0000E+01  0.0000E+00  2.1267E+00
 ------------------------------------------------------------------------------------------------------------------------
      570  3.1566E+03  3.2916E+02 -8.4199E+02 -2.1416E+03 -1.6951E+03  0.0000E+00  2.6142E+03  3.8054E+02  0.0000E+00
 570.000f  4.5121E+03  0.0000E+00  1.8589E+03 -1.9790E+04  1.6922E+03  0.0000E+00  0.0000E+00  1.9957E+04  0.0000E+00
  51.331s  6.5704E+04  0.0000E+00  0.0000E+00  0.0000E+00  9.0000E+01  9.0000E+01  9.0000E+01  0.0000E+00  1.8470E+00

  rolling  3.1563E+03  3.1189E+02 -9.1202E+02 -2.1547E+03 -1.7036E+03  0.0000E+00  2.5723E+03  3.7399E+02  0.0000E+00
 averages  4.6330E+03  0.0000E+00  3.4550E+02 -1.9581E+04  1.6892E+03  0.0000E+00  0.0000E+00  1.8237E+04  0.0000E+00
           6.5704E+04  0.0000E+00  0.0000E+00  0.0000E+00  9.0000E+01  9.0000E+01  9.0000E+01  0.0000E+00  2.2426E+00
 ------------------------------------------------------------------------------------------------------------------------
      580  3.1570E+03  3.2886E+02 -8.0483E+02 -2.1051E+03 -1.6941E+03  0.0000E+00  2.6147E+03  3.7959E+02  0.0000E+00
 580.000f  5.3096E+03  0.0000E+00 -4.3849E+02 -2.0275E+04  1.6946E+03  0.0000E+00  0.0000E+00  1.8142E+04  0.0000E+00
  52.235s  6.5704E+04  0.0000E+00  0.0000E+00  0.0000E+00  9.0000E+01  9.0000E+01  9.0000E+01  0.0000E+00  2.6439E+00

  rolling  3.1566E+03  3.1471E+02 -8.8758E+02 -2.1494E+03 -1.7014E+03  0.0000E+00  2.5884E+03  3.7493E+02  0.0000E+00
 averages  4.6400E+03  0.0000E+00  5.5154E+02 -1.9656E+04  1.6882E+03  0.0000E+00  0.0000E+00  1.8519E+04  0.0000E+00
           6.5704E+04  0.0000E+00  0.0000E+00  0.0000E+00  9.0000E+01  9.0000E+01  9.0000E+01  0.0000E+00  2.1923E+00
 ------------------------------------------------------------------------------------------------------------------------
      590  3.1566E+03  3.3139E+02 -8.0597E+02 -2.1144E+03 -1.6924E+03  0.0000E+00  2.6179E+03  3.8287E+02  0.0000E+00
 590.000f  5.0445E+03  0.0000E+00  4.9113E+02 -2.0151E+04  1.6957E+03  0.0000E+00  0.0000E+00  1.8947E+04  0.0000E+00
  53.048s  6.5704E+04  0.0000E+00  0.0000E+00  0.0000E+00  9.0000E+01  9.0000E+01  9.0000E+01  0.0000E+00  2.3397E+00

  rolling  3.1568E+03  3.1740E+02 -8.6514E+02 -2.1403E+03 -1.6993E+03  0.0000E+00  2.5985E+03  3.7595E+02  0.0000E+00
 averages  4.8199E+03  0.0000E+00  2.2554E+02 -1.9781E+04  1.6876E+03  0.0000E+00  0.0000E+00  1.8319E+04  0.0000E+00
           6.5704E+04  0.0000E+00  0.0000E+00  0.0000E+00  9.0000E+01  9.0000E+01  9.0000E+01  0.0000E+00  2.3261E+00
 ------------------------------------------------------------------------------------------------------------------------
      600  3.1576E+03  3.2819E+02 -7.5006E+02 -2.1059E+03 -1.6906E+03  0.0000E+00  2.6588E+03  3.8759E+02  0.0000E+00
 600.000f  5.1768E+03  0.0000E+00  8.7730E+01 -2.0275E+04  1.6957E+03  0.0000E+00  0.0000E+00  1.8667E+04  0.0000E+00
  53.960s  6.5704E+04  0.0000E+00  0.0000E+00  0.0000E+00  9.0000E+01  9.0000E+01  9.0000E+01  0.0000E+00  2.4558E+00

  rolling  3.1570E+03  3.1949E+02 -8.4024E+02 -2.1346E+03 -1.6972E+03  0.0000E+00  2.6143E+03  3.7730E+02  0.0000E+00
 averages  4.8374E+03  0.0000E+00  3.6175E+02 -1.9861E+04  1.6875E+03  0.0000E+00  0.0000E+00  1.8536E+04  0.0000E+00
           6.5704E+04  0.0000E+00  0.0000E+00  0.0000E+00  9.0000E+01  9.0000E+01  9.0000E+01  0.0000E+00  2.2946E+00
 ------------------------------------------------------------------------------------------------------------------------
      610  3.1578E+03  3.3029E+02 -7.5963E+02 -2.0960E+03 -1.6880E+03  0.0000E+00  2.6314E+03  3.9302E+02  0.0000E+00
 610.000f  5.3995E+03  0.0000E+00 -4.9508E+02 -2.0426E+04  1.6928E+03  0.0000E+00  0.0000E+00  1.8239E+04  0.0000E+00
  54.875s  6.5704E+04  0.0000E+00  0.0000E+00  0.0000E+00  9.0000E+01  9.0000E+01  9.0000E+01  0.0000E+00  2.6744E+00

  rolling  3.1572E+03  3.2183E+02 -8.2277E+02 -2.1262E+03 -1.6952E+03  0.0000E+00  2.6194E+03  3.7925E+02  0.0000E+00
 averages  4.9877E+03  0.0000E+00  9.0273E+01 -1.9980E+04  1.6879E+03  0.0000E+00  0.0000E+00  1.8382E+04  0.0000E+00
           6.5704E+04  0.0000E+00  0.0000E+00  0.0000E+00  9.0000E+01  9.0000E+01  9.0000E+01  0.0000E+00  2.4067E+00
 ------------------------------------------------------------------------------------------------------------------------
      620  3.1575E+03  3.3041E+02 -7.5587E+02 -2.1150E+03 -1.6858E+03  0.0000E+00  2.6459E+03  3.9899E+02  0.0000E+00
 620.000f  4.8430E+03  0.0000E+00  1.1922E+03 -2.0165E+04  1.6912E+03  0.0000E+00  0.0000E+00  1.9666E+04  0.0000E+00
  55.698s  6.5704E+04  0.0000E+00  0.0000E+00  0.0000E+00  9.0000E+01  9.0000E+01  9.0000E+01  0.0000E+00  2.0884E+00

  rolling  3.1574E+03  3.2355E+02 -8.0405E+02 -2.1228E+03 -1.6934E+03  0.0000E+00  2.6300E+03  3.8208E+02  0.0000E+00
 averages  4.9801E+03  0.0000E+00  2.6334E+02 -2.0032E+04  1.6884E+03  0.0000E+00  0.0000E+00  1.8607E+04  0.0000E+00
           6.5704E+04  0.0000E+00  0.0000E+00  0.0000E+00  9.0000E+01  9.0000E+01  9.0000E+01  0.0000E+00  2.3596E+00
 ------------------------------------------------------------------------------------------------------------------------
      630  3.1587E+03  3.2540E+02 -7.0246E+02 -2.1089E+03 -1.6878E+03  0.0000E+00  2.6954E+03  3.9886E+02  0.0000E+00
 630.000f  5.6023E+03  0.0000E+00 -1.1977E+03 -2.0274E+04  1.6962E+03  0.0000E+00  0.0000E+00  1.7380E+04  0.0000E+00
  56.609s  6.5704E+04  0.0000E+00  0.0000E+00  0.0000E+00  9.0000E+01  9.0000E+01  9.0000E+01  0.0000E+00  2.8818E+00

  rolling  3.1575E+03  3.2487E+02 -7.8669E+02 -2.1167E+03 -1.6922E+03  0.0000E+00  2.6370E+03  3.8507E+02  0.0000E+00
 averages  5.1015E+03  0.0000E+00  2.2788E+01 -2.0122E+04  1.6898E+03  0.0000E+00  0.0000E+00  1.8455E+04  0.0000E+00
           6.5704E+04  0.0000E+00  0.0000E+00  0.0000E+00  9.0000E+01  9.0000E+01  9.0000E+01  0.0000E+00  2.4532E+00
 ------------------------------------------------------------------------------------------------------------------------
 ------------------------------------------------------------------------------------------------------------------------

     step     eng_tot    temp_tot     eng_cfg     eng_vdw     eng_cou     eng_bnd     eng_ang     eng_dih     eng_tet
 time          eng_pv    temp_rot     vir_cfg     vir_vdw     vir_cou     vir_bnd     vir_ang     vir_con     vir_tet
 cpu time      volume    temp_shl     eng_shl     vir_shl       alpha        beta       gamma     vir_pmf       press

 ------------------------------------------------------------------------------------------------------------------------
      640  3.1581E+03  3.2758E+02 -7.3631E+02 -2.1367E+03 -1.6884E+03  0.0000E+00  2.6938E+03  3.9497E+02  0.0000E+00
 640.000f  4.4830E+03  0.0000E+00  2.1771E+03 -1.9904E+04  1.7003E+03  0.0000E+00  0.0000E+00  2.0381E+04  0.0000E+00
  57.514s  6.5704E+04  0.0000E+00  0.0000E+00  0.0000E+00  9.0000E+01  9.0000E+01  9.0000E+01  0.0000E+00  1.7243E+00

  rolling  3.1576E+03  3.2632E+02 -7.7714E+02 -2.1171E+03 -1.6913E+03  0.0000E+00  2.6440E+03  3.8731E+02  0.0000E+00
 averages  5.0647E+03  0.0000E+00  2.4079E+02 -2.0125E+04  1.6917E+03  0.0000E+00  0.0000E+00  1.8674E+04  0.0000E+00
           6.5704E+04  0.0000E+00  0.0000E+00  0.0000E+00  9.0000E+01  9.0000E+01  9.0000E+01  0.0000E+00  2.3884E+00
 ------------------------------------------------------------------------------------------------------------------------
      650  3.1577E+03  3.3184E+02 -8.0007E+02 -2.1388E+03 -1.6898E+03  0.0000E+00  2.6353E+03  3.9330E+02  0.0000E+00
 650.000f  5.5358E+03  0.0000E+00 -9.4053E+02 -1.9890E+04  1.7052E+03  0.0000E+00  0.0000E+00  1.7244E+04  0.0000E+00
  58.331s  6.5704E+04  0.0000E+00  0.0000E+00  0.0000E+00  9.0000E+01  9.0000E+01  9.0000E+01  0.0000E+00  2.8411E+00

  rolling  3.1577E+03  3.2733E+02 -7.6937E+02 -2.1178E+03 -1.6908E+03  0.0000E+00  2.6504E+03  3.8871E+02  0.0000E+00
 averages  5.0946E+03  0.0000E+00  2.2948E+02 -2.0124E+04  1.6939E+03  0.0000E+00  0.0000E+00  1.8660E+04  0.0000E+00
           6.5704E+04  0.0000E+00  0.0000E+00  0.0000E+00  9.0000E+01  9.0000E+01  9.0000E+01  0.0000E+00  2.3999E+00
 ------------------------------------------------------------------------------------------------------------------------
      660  3.1573E+03  3.2740E+02 -7.7665E+02 -2.1247E+03 -1.6925E+03  0.0000E+00  2.6445E+03  3.9612E+02  0.0000E+00
 660.000f  4.6591E+03  0.0000E+00  1.5180E+03 -2.0068E+04  1.7125E+03  0.0000E+00  0.0000E+00  1.9874E+04  0.0000E+00
  59.245s  6.5704E+04  0.0000E+00  0.0000E+00  0.0000E+00  9.0000E+01  9.0000E+01  9.0000E+01  0.0000E+00  1.9522E+00

  rolling  3.1578E+03  3.2788E+02 -7.6355E+02 -2.1192E+03 -1.6905E+03  0.0000E+00  2.6562E+03  3.8994E+02  0.0000E+00
 averages  5.1047E+03  0.0000E+00  2.4652E+02 -2.0113E+04  1.6965E+03  0.0000E+00  0.0000E+00  1.8663E+04  0.0000E+00
           6.5704E+04  0.0000E+00  0.0000E+00  0.0000E+00  9.0000E+01  9.0000E+01  9.0000E+01  0.0000E+00  2.3982E+00
 ------------------------------------------------------------------------------------------------------------------------
      670  3.1567E+03  3.2267E+02 -7.5669E+02 -2.1143E+03 -1.6938E+03  0.0000E+00  2.6551E+03  3.9637E+02  0.0000E+00
[...]
   1.249m  6.5704E+04  0.0000E+00  0.0000E+00  0.0000E+00  9.0000E+01  9.0000E+01  9.0000E+01  0.0000E+00  2.1205E+00

  rolling  3.1548E+03  2.9135E+02 -1.0071E+03 -2.1591E+03 -1.6879E+03  0.0000E+00  2.4668E+03  3.7313E+02  0.0000E+00
 averages  4.2704E+03  0.0000E+00  2.9745E+01 -1.9693E+04  1.7150E+03  0.0000E+00  0.0000E+00  1.8007E+04  0.0000E+00
           6.5704E+04  0.0000E+00  0.0000E+00  0.0000E+00  9.0000E+01  9.0000E+01  9.0000E+01  0.0000E+00  2.1968E+00
 ------------------------------------------------------------------------------------------------------------------------
      850  3.1532E+03  2.8495E+02 -1.2044E+03 -2.2265E+03 -1.6933E+03  0.0000E+00  2.3564E+03  3.5894E+02  0.0000E+00
 850.000f  3.6443E+03  0.0000E+00  9.6754E+02 -1.8696E+04  1.7237E+03  0.0000E+00  0.0000E+00  1.7940E+04  0.0000E+00
   1.264m  6.5704E+04  0.0000E+00  0.0000E+00  0.0000E+00  9.0000E+01  9.0000E+01  9.0000E+01  0.0000E+00  1.8221E+00

  rolling  3.1546E+03  2.8952E+02 -1.0359E+03 -2.1654E+03 -1.6889E+03  0.0000E+00  2.4481E+03  3.7024E+02  0.0000E+00
 averages  4.1869E+03  0.0000E+00  9.4523E+01 -1.9599E+04  1.7168E+03  0.0000E+00  0.0000E+00  1.7977E+04  0.0000E+00
           6.5704E+04  0.0000E+00  0.0000E+00  0.0000E+00  9.0000E+01  9.0000E+01  9.0000E+01  0.0000E+00  2.1605E+00
 ------------------------------------------------------------------------------------------------------------------------
      860  3.1532E+03  2.8024E+02 -1.1856E+03 -2.2461E+03 -1.6957E+03  0.0000E+00  2.3890E+03  3.6714E+02  0.0000E+00
 860.000f  3.4261E+03  0.0000E+00  1.4226E+03 -1.8404E+04  1.7305E+03  0.0000E+00  0.0000E+00  1.8096E+04  0.0000E+00
   1.277m  6.5704E+04  0.0000E+00  0.0000E+00  0.0000E+00  9.0000E+01  9.0000E+01  9.0000E+01  0.0000E+00  1.6282E+00

  rolling  3.1544E+03  2.8737E+02 -1.0590E+03 -2.1741E+03 -1.6899E+03  0.0000E+00  2.4368E+03  3.6822E+02  0.0000E+00
 averages  4.1020E+03  0.0000E+00  1.6267E+02 -1.9470E+04  1.7189E+03  0.0000E+00  0.0000E+00  1.7914E+04  0.0000E+00
           6.5704E+04  0.0000E+00  0.0000E+00  0.0000E+00  9.0000E+01  9.0000E+01  9.0000E+01  0.0000E+00  2.1204E+00
 ------------------------------------------------------------------------------------------------------------------------
      870  3.1527E+03  2.7958E+02 -1.2072E+03 -2.2410E+03 -1.6982E+03  0.0000E+00  2.3610E+03  3.7089E+02  0.0000E+00
 870.000f  3.6225E+03  0.0000E+00  7.3261E+02 -1.8458E+04  1.7360E+03  0.0000E+00  0.0000E+00  1.7455E+04  0.0000E+00
   1.292m  6.5704E+04  0.0000E+00  0.0000E+00  0.0000E+00  9.0000E+01  9.0000E+01  9.0000E+01  0.0000E+00  1.8632E+00

  rolling  3.1542E+03  2.8547E+02 -1.0824E+03 -2.1817E+03 -1.6909E+03  0.0000E+00  2.4234E+03  3.6688E+02  0.0000E+00
 averages  4.0174E+03  0.0000E+00  2.4297E+02 -1.9355E+04  1.7212E+03  0.0000E+00  0.0000E+00  1.7877E+04  0.0000E+00
           6.5704E+04  0.0000E+00  0.0000E+00  0.0000E+00  9.0000E+01  9.0000E+01  9.0000E+01  0.0000E+00  2.0781E+00
 ------------------------------------------------------------------------------------------------------------------------
 ------------------------------------------------------------------------------------------------------------------------

     step     eng_tot    temp_tot     eng_cfg     eng_vdw     eng_cou     eng_bnd     eng_ang     eng_dih     eng_tet
 time          eng_pv    temp_rot     vir_cfg     vir_vdw     vir_cou     vir_bnd     vir_ang     vir_con     vir_tet
 cpu time      volume    temp_shl     eng_shl     vir_shl       alpha        beta       gamma     vir_pmf       press

 ------------------------------------------------------------------------------------------------------------------------
      880  3.1527E+03  2.7918E+02 -1.2266E+03 -2.2278E+03 -1.7033E+03  0.0000E+00  2.3366E+03  3.6789E+02  0.0000E+00
 880.000f  3.3670E+03  0.0000E+00  1.4189E+03 -1.8622E+04  1.7455E+03  0.0000E+00  0.0000E+00  1.8296E+04  0.0000E+00
   1.306m  6.5704E+04  0.0000E+00  0.0000E+00  0.0000E+00  9.0000E+01  9.0000E+01  9.0000E+01  0.0000E+00  1.6214E+00

  rolling  3.1541E+03  2.8387E+02 -1.1060E+03 -2.1880E+03 -1.6923E+03  0.0000E+00  2.4087E+03  3.6559E+02  0.0000E+00
 averages  3.9513E+03  0.0000E+00  2.8306E+02 -1.9255E+04  1.7238E+03  0.0000E+00  0.0000E+00  1.7814E+04  0.0000E+00
           6.5704E+04  0.0000E+00  0.0000E+00  0.0000E+00  9.0000E+01  9.0000E+01  9.0000E+01  0.0000E+00  2.0520E+00
 ------------------------------------------------------------------------------------------------------------------------
      890  3.1520E+03  2.8196E+02 -1.2769E+03 -2.2540E+03 -1.7083E+03  0.0000E+00  2.3194E+03  3.6596E+02  0.0000E+00
 890.000f  3.1183E+03  0.0000E+00  2.1653E+03 -1.8279E+04  1.7535E+03  0.0000E+00  0.0000E+00  1.8691E+04  0.0000E+00
   1.321m  6.5704E+04  0.0000E+00  0.0000E+00  0.0000E+00  9.0000E+01  9.0000E+01  9.0000E+01  0.0000E+00  1.3828E+00

  rolling  3.1539E+03  2.8250E+02 -1.1291E+03 -2.1972E+03 -1.6941E+03  0.0000E+00  2.3978E+03  3.6439E+02  0.0000E+00
 averages  3.8296E+03  0.0000E+00  5.0424E+02 -1.9114E+04  1.7270E+03  0.0000E+00  0.0000E+00  1.7892E+04  0.0000E+00
           6.5704E+04  0.0000E+00  0.0000E+00  0.0000E+00  9.0000E+01  9.0000E+01  9.0000E+01  0.0000E+00  1.9647E+00
 ------------------------------------------------------------------------------------------------------------------------
      900  3.1526E+03  2.7981E+02 -1.2682E+03 -2.2400E+03 -1.7124E+03  0.0000E+00  2.3155E+03  3.6869E+02  0.0000E+00
 900.000f  3.4621E+03  0.0000E+00  1.0431E+03 -1.8476E+04  1.7603E+03  0.0000E+00  0.0000E+00  1.7759E+04  0.0000E+00
   1.334m  6.5704E+04  0.0000E+00  0.0000E+00  0.0000E+00  9.0000E+01  9.0000E+01  9.0000E+01  0.0000E+00  1.7569E+00

  rolling  3.1537E+03  2.8144E+02 -1.1523E+03 -2.2057E+03 -1.6962E+03  0.0000E+00  2.3858E+03  3.6381E+02  0.0000E+00
 averages  3.7601E+03  0.0000E+00  5.8562E+02 -1.8984E+04  1.7307E+03  0.0000E+00  0.0000E+00  1.7839E+04  0.0000E+00
           6.5704E+04  0.0000E+00  0.0000E+00  0.0000E+00  9.0000E+01  9.0000E+01  9.0000E+01  0.0000E+00  1.9284E+00
 ------------------------------------------------------------------------------------------------------------------------
      910  3.1525E+03  2.7897E+02 -1.2705E+03 -2.2239E+03 -1.7176E+03  0.0000E+00  2.3013E+03  3.6968E+02  0.0000E+00
 910.000f  3.0864E+03  0.0000E+00  2.1178E+03 -1.8698E+04  1.7684E+03  0.0000E+00  0.0000E+00  1.9047E+04  0.0000E+00
   1.350m  6.5704E+04  0.0000E+00  0.0000E+00  0.0000E+00  9.0000E+01  9.0000E+01  9.0000E+01  0.0000E+00  1.3767E+00

  rolling  3.1536E+03  2.8020E+02 -1.1698E+03 -2.2124E+03 -1.6988E+03  0.0000E+00  2.3774E+03  3.6392E+02  0.0000E+00
 averages  3.6490E+03  0.0000E+00  7.9882E+02 -1.8880E+04  1.7352E+03  0.0000E+00  0.0000E+00  1.7943E+04  0.0000E+00
           6.5704E+04  0.0000E+00  0.0000E+00  0.0000E+00  9.0000E+01  9.0000E+01  9.0000E+01  0.0000E+00  1.8449E+00
 ------------------------------------------------------------------------------------------------------------------------
      920  3.1531E+03  2.7691E+02 -1.2543E+03 -2.2276E+03 -1.7191E+03  0.0000E+00  2.3235E+03  3.6897E+02  0.0000E+00
 920.000f  3.4499E+03  0.0000E+00  9.6352E+02 -1.8639E+04  1.7718E+03  0.0000E+00  0.0000E+00  1.7831E+04  0.0000E+00
   1.363m  6.5704E+04  0.0000E+00  0.0000E+00  0.0000E+00  9.0000E+01  9.0000E+01  9.0000E+01  0.0000E+00  1.7626E+00

  rolling  3.1535E+03  2.7920E+02 -1.1862E+03 -2.2204E+03 -1.7016E+03  0.0000E+00  2.3712E+03  3.6457E+02  0.0000E+00
 averages  3.5620E+03  0.0000E+00  9.5628E+02 -1.8759E+04  1.7402E+03  0.0000E+00  0.0000E+00  1.7975E+04  0.0000E+00
           6.5704E+04  0.0000E+00  0.0000E+00  0.0000E+00  9.0000E+01  9.0000E+01  9.0000E+01  0.0000E+00  1.7825E+00
 ------------------------------------------------------------------------------------------------------------------------
      930  3.1531E+03  2.7545E+02 -1.2408E+03 -2.2465E+03 -1.7192E+03  0.0000E+00  2.3574E+03  3.6748E+02  0.0000E+00
 930.000f  3.1613E+03  0.0000E+00  1.7900E+03 -1.8395E+04  1.7743E+03  0.0000E+00  0.0000E+00  1.8411E+04  0.0000E+00
   1.378m  6.5704E+04  0.0000E+00  0.0000E+00  0.0000E+00  9.0000E+01  9.0000E+01  9.0000E+01  0.0000E+00  1.4640E+00

  rolling  3.1534E+03  2.7852E+02 -1.2021E+03 -2.2293E+03 -1.7044E+03  0.0000E+00  2.3659E+03  3.6568E+02  0.0000E+00
 averages  3.4797E+03  0.0000E+00  1.1183E+03 -1.8631E+04  1.7456E+03  0.0000E+00  0.0000E+00  1.8003E+04  0.0000E+00
           6.5704E+04  0.0000E+00  0.0000E+00  0.0000E+00  9.0000E+01  9.0000E+01  9.0000E+01  0.0000E+00  1.7210E+00
 ------------------------------------------------------------------------------------------------------------------------
      940  3.1532E+03  2.7673E+02 -1.2527E+03 -2.2407E+03 -1.7194E+03  0.0000E+00  2.3430E+03  3.6440E+02  0.0000E+00
 940.000f  3.3580E+03  0.0000E+00  1.2341E+03 -1.8458E+04  1.7773E+03  0.0000E+00  0.0000E+00  1.7915E+04  0.0000E+00
   1.392m  6.5704E+04  0.0000E+00  0.0000E+00  0.0000E+00  9.0000E+01  9.0000E+01  9.0000E+01  0.0000E+00  1.6671E+00

  rolling  3.1534E+03  2.7779E+02 -1.2135E+03 -2.2340E+03 -1.7073E+03  0.0000E+00  2.3610E+03  3.6677E+02  0.0000E+00
 averages  3.3969E+03  0.0000E+00  1.2932E+03 -1.8560E+04  1.7514E+03  0.0000E+00  0.0000E+00  1.8102E+04  0.0000E+00
           6.5704E+04  0.0000E+00  0.0000E+00  0.0000E+00  9.0000E+01  9.0000E+01  9.0000E+01  0.0000E+00  1.6546E+00
 ------------------------------------------------------------------------------------------------------------------------
      950  3.1533E+03  2.7814E+02 -1.2618E+03 -2.2845E+03 -1.7198E+03  0.0000E+00  2.3829E+03  3.5966E+02  0.0000E+00
 950.000f  2.9983E+03  0.0000E+00  2.3628E+03 -1.7896E+04  1.7798E+03  0.0000E+00  0.0000E+00  1.8480E+04  0.0000E+00
   1.405m  6.5704E+04  0.0000E+00  0.0000E+00  0.0000E+00  9.0000E+01  9.0000E+01  9.0000E+01  0.0000E+00  1.2851E+00

  rolling  3.1533E+03  2.7719E+02 -1.2221E+03 -2.2389E+03 -1.7101E+03  0.0000E+00  2.3597E+03  3.6724E+02  0.0000E+00
 averages  3.3425E+03  0.0000E+00  1.3978E+03 -1.8490E+04  1.7573E+03  0.0000E+00  0.0000E+00  1.8130E+04  0.0000E+00
           6.5704E+04  0.0000E+00  0.0000E+00  0.0000E+00  9.0000E+01  9.0000E+01  9.0000E+01  0.0000E+00  1.6137E+00
 ------------------------------------------------------------------------------------------------------------------------
 ------------------------------------------------------------------------------------------------------------------------

     step     eng_tot    temp_tot     eng_cfg     eng_vdw     eng_cou     eng_bnd     eng_ang     eng_dih     eng_tet
 time          eng_pv    temp_rot     vir_cfg     vir_vdw     vir_cou     vir_bnd     vir_ang     vir_con     vir_tet
 cpu time      volume    temp_shl     eng_shl     vir_shl       alpha        beta       gamma     vir_pmf       press

 ------------------------------------------------------------------------------------------------------------------------
      960  3.1535E+03  2.7949E+02 -1.2660E+03 -2.2686E+03 -1.7198E+03  0.0000E+00  2.3632E+03  3.5923E+02  0.0000E+00
 960.000f  3.1585E+03  0.0000E+00  1.9431E+03 -1.8091E+04  1.7808E+03  0.0000E+00  0.0000E+00  1.8253E+04  0.0000E+00
   1.420m  6.5704E+04  0.0000E+00  0.0000E+00  0.0000E+00  9.0000E+01  9.0000E+01  9.0000E+01  0.0000E+00  1.4414E+00

  rolling  3.1532E+03  2.7719E+02 -1.2329E+03 -2.2434E+03 -1.7126E+03  0.0000E+00  2.3563E+03  3.6681E+02  0.0000E+00
 averages  3.2832E+03  0.0000E+00  1.5432E+03 -1.8428E+04  1.7625E+03  0.0000E+00  0.0000E+00  1.8208E+04  0.0000E+00
           6.5704E+04  0.0000E+00  0.0000E+00  0.0000E+00  9.0000E+01  9.0000E+01  9.0000E+01  0.0000E+00  1.5631E+00
 ------------------------------------------------------------------------------------------------------------------------
      970  3.1532E+03  2.8095E+02 -1.2682E+03 -2.2405E+03 -1.7221E+03  0.0000E+00  2.3335E+03  3.6083E+02  0.0000E+00
 970.000f  3.3229E+03  0.0000E+00  1.5227E+03 -1.8497E+04  1.7867E+03  0.0000E+00  0.0000E+00  1.8233E+04  0.0000E+00
   1.433m  6.5704E+04  0.0000E+00  0.0000E+00  0.0000E+00  9.0000E+01  9.0000E+01  9.0000E+01  0.0000E+00  1.5987E+00

  rolling  3.1532E+03  2.7746E+02 -1.2425E+03 -2.2443E+03 -1.7150E+03  0.0000E+00  2.3510E+03  3.6582E+02  0.0000E+00
 averages  3.2721E+03  0.0000E+00  1.5627E+03 -1.8418E+04  1.7675E+03  0.0000E+00  0.0000E+00  1.8213E+04  0.0000E+00
           6.5704E+04  0.0000E+00  0.0000E+00  0.0000E+00  9.0000E+01  9.0000E+01  9.0000E+01  0.0000E+00  1.5584E+00
 ------------------------------------------------------------------------------------------------------------------------
      980  3.1534E+03  2.7816E+02 -1.2202E+03 -2.2148E+03 -1.7235E+03  0.0000E+00  2.3541E+03  3.6391E+02  0.0000E+00
 980.000f  3.2358E+03  0.0000E+00  1.7766E+03 -1.8818E+04  1.7920E+03  0.0000E+00  0.0000E+00  1.8803E+04  0.0000E+00
   1.448m  6.5704E+04  0.0000E+00  0.0000E+00  0.0000E+00  9.0000E+01  9.0000E+01  9.0000E+01  0.0000E+00  1.4893E+00

  rolling  3.1532E+03  2.7777E+02 -1.2482E+03 -2.2443E+03 -1.7172E+03  0.0000E+00  2.3482E+03  3.6512E+02  0.0000E+00
 averages  3.2298E+03  0.0000E+00  1.6892E+03 -1.8421E+04  1.7724E+03  0.0000E+00  0.0000E+00  1.8338E+04  0.0000E+00
           6.5704E+04  0.0000E+00  0.0000E+00  0.0000E+00  9.0000E+01  9.0000E+01  9.0000E+01  0.0000E+00  1.5167E+00
 ------------------------------------------------------------------------------------------------------------------------
      990  3.1536E+03  2.7762E+02 -1.1927E+03 -2.2115E+03 -1.7250E+03  0.0000E+00  2.3793E+03  3.6442E+02  0.0000E+00
 990.000f  3.7279E+03  0.0000E+00  3.5338E+02 -1.8895E+04  1.7940E+03  0.0000E+00  0.0000E+00  1.7454E+04  0.0000E+00
   1.462m  6.5704E+04  0.0000E+00  0.0000E+00  0.0000E+00  9.0000E+01  9.0000E+01  9.0000E+01  0.0000E+00  1.9803E+00

  rolling  3.1532E+03  2.7800E+02 -1.2490E+03 -2.2415E+03 -1.7190E+03  0.0000E+00  2.3467E+03  3.6486E+02  0.0000E+00
 averages  3.2679E+03  0.0000E+00  1.5849E+03 -1.8461E+04  1.7768E+03  0.0000E+00  0.0000E+00  1.8270E+04  0.0000E+00
           6.5704E+04  0.0000E+00  0.0000E+00  0.0000E+00  9.0000E+01  9.0000E+01  9.0000E+01  0.0000E+00  1.5547E+00
 ------------------------------------------------------------------------------------------------------------------------
     1000  3.1535E+03  2.8331E+02 -1.2293E+03 -2.1929E+03 -1.7271E+03  0.0000E+00  2.3291E+03  3.6165E+02  0.0000E+00
   1.000p  3.4065E+03  0.0000E+00  1.5176E+03 -1.9128E+04  1.7965E+03  0.0000E+00  0.0000E+00  1.8849E+04  0.0000E+00
   1.477m  6.5704E+04  0.0000E+00  0.0000E+00  0.0000E+00  9.0000E+01  9.0000E+01  9.0000E+01  0.0000E+00  1.6184E+00

  rolling  3.1532E+03  2.7815E+02 -1.2449E+03 -2.2364E+03 -1.7206E+03  0.0000E+00  2.3477E+03  3.6443E+02  0.0000E+00
 averages  3.2916E+03  0.0000E+00  1.5347E+03 -1.8533E+04  1.7806E+03  0.0000E+00  0.0000E+00  1.8287E+04  0.0000E+00
           6.5704E+04  0.0000E+00  0.0000E+00  0.0000E+00  9.0000E+01  9.0000E+01  9.0000E+01  0.0000E+00  1.5734E+00
 ------------------------------------------------------------------------------------------------------------------------


 run terminating. elapsed cpu time =   8.86200E+01, job time =  10.000h, close time =  100.00s



 run terminated after    1000 steps. final averages calculated over     500 steps.


 ------------------------------------------------------------------------------------------------------------------------

     step     eng_tot    temp_tot     eng_cfg     eng_vdw     eng_cou     eng_bnd     eng_ang     eng_dih     eng_tet
 time          eng_pv    temp_rot     vir_cfg     vir_vdw     vir_cou     vir_bnd     vir_ang     vir_con     vir_tet
 cpu time      volume    temp_shl     eng_shl     vir_shl       alpha        beta       gamma     vir_pmf       press

 ------------------------------------------------------------------------------------------------------------------------
     1000  3.1555E+03  3.0099E+02 -9.7899E+02 -2.1654E+03 -1.6978E+03  0.0000E+00  2.5072E+03  3.7699E+02  0.0000E+00
   1.000p  4.3218E+03  0.0000E+00  4.8511E+02 -1.9520E+04  1.7228E+03  0.0000E+00  0.0000E+00  1.8283E+04  0.0000E+00
   1.479m  6.5704E+04  0.0000E+00  0.0000E+00  0.0000E+00  9.0000E+01  9.0000E+01  9.0000E+01  0.0000E+00  2.1115E+00

  r.m.s.   1.8537E+00  2.0069E+01  1.9587E+02  5.5244E+01  1.2958E+01  0.0000E+00  1.2686E+02  1.2904E+01  0.0000E+00
 fluctn.   8.0046E+02  0.0000E+00  1.1956E+03  7.6254E+02  3.3335E+01  0.0000E+00  0.0000E+00  9.0767E+02  0.0000E+00
           1.4680E-11  0.0000E+00  0.0000E+00  0.0000E+00  2.6493E-14  2.6493E-14  2.6493E-14  0.0000E+00  4.9173E-01
 ------------------------------------------------------------------------------------------------------------------------


            Approximate 3D Diffusion  coefficients (10^-9 m^2 / s)

            atom        D 
            S          2.5653E+00
            O          3.7398E+00
            C          3.5376E+00
            H          5.1444E+00
            S*         5.9403E+00
            O*         1.6168E+01


                Average pressure tensor                                       r.m.s. fluctuations 

           2.0403E+00 -6.1584E-03  5.2511E-02                          7.0590E-01  2.9914E-01  3.2543E-01
          -6.1584E-03  2.1453E+00  9.8631E-02                          2.9914E-01  7.0332E-01  4.2899E-01
           5.2511E-02  9.8631E-02  2.1488E+00                          3.2543E-01  4.2899E-01  7.1670E-01

            trace/3.   2.1115E+00


 sample of final configuration

      i       x(i)        y(i)        z(i)       vx(i)       vy(i)       vz(i)       fx(i)       fy(i)       fz(i)


      1 -1.1730E+01 -1.6144E+01  1.8560E+01 -1.2390E-01  1.9968E+00 -4.5314E-01 -5.1377E+03 -1.6991E+03  3.0900E+02
    262 -4.9296E-01 -4.3651E+00 -1.7753E+01 -3.0179E+00  7.1556E-01  2.3219E+00 -2.4048E+03  1.8831E+03 -2.2258E+03
    523 -1.6932E+00  9.4922E+00 -1.2211E+01  2.1769E+00 -3.3497E+00  1.2200E+00  6.1274E+03 -6.8950E+03 -2.8571E+03
    784  1.0552E+01 -1.8841E+01  1.8739E+01  8.5481E-01  2.7457E-01 -2.5273E+00  7.7300E+03  5.2547E+03  1.3520E+03
   1045 -1.9149E+01  1.0884E+01 -1.4636E+01  9.3779E+00 -2.5458E+00 -8.8724E+00  1.5994E+01  5.9792E+02 -6.8859E+01
   1306 -1.0803E+01 -1.4948E+01  2.5370E+00 -3.3948E+00 -2.5473E+00  2.3675E+01  3.1080E+03  8.5816E+02  3.0847E+03
   1567  4.6295E+00  9.2118E-01 -1.7555E+01  7.7046E-01 -2.8910E+01 -8.3037E+00  7.2466E+02  6.1024E+03  2.3555E+03
   1828  1.1610E+01  1.2287E+01 -7.0363E+00 -9.8149E+00  7.3167E+00 -1.4848E+00 -1.1913E+03  1.7371E+03 -4.9816E+02
   2089 -1.0666E+01 -7.5634E+00 -3.2053E+00  6.4695E+00  8.0910E-01  2.1714E+00 -2.5559E+03 -1.1320E+03 -4.5717E+02
   2350 -4.0883E+00  2.8155E+00  3.9172E+00 -4.3548E+00 -1.0211E+01 -1.8563E+00 -1.9867E+03 -2.4002E+03 -4.5676E+03
   2611  7.5931E+00 -1.6201E+01  2.6716E+00  1.1068E+00 -5.5453E-01  3.4739E+00  6.6403E+03 -2.3056E+03  1.5386E+03
   2872 -1.8846E+01  1.3809E+00 -8.2003E+00 -9.6294E-01  3.3462E+00  5.2655E+00  1.1542E+03  3.2006E+03  1.5133E+03
   3133 -1.5912E+01  1.4793E+01  6.2165E+00  1.3954E+00  1.1117E+00  7.1998E+00  1.3582E+03  1.2568E+02 -4.9054E+03
   3394  6.0641E+00 -3.3446E+00  1.8824E+00 -7.9562E-02  1.4249E+00 -8.4679E+00 -7.5409E+03  3.1306E+03  2.4486E+03
   3655  4.6652E+00  6.2639E+00  2.6536E-01  5.2063E+00  7.9033E+00  5.4960E+00  2.5378E+03 -2.8829E+03 -1.3976E+03
   3916 -1.3247E+01 -1.7298E+01  1.0038E+01  6.2192E-01  1.4381E+01 -1.6578E+01  1.8713E+03 -2.0671E+03 -5.1104E+03
   4177 -9.6081E+00  8.1858E+00  1.2834E+01 -4.9208E+00 -2.6913E+00 -3.9002E+00 -1.4298E+02 -3.5064E+03 -3.1333E+03
   4438  6.7148E+00  1.4840E+01  1.5949E+01 -9.0182E+00  6.3065E+00  6.6608E+00  2.4442E+03 -4.9732E+02  9.2640E+03
   4699 -4.0305E+00 -2.4476E+00 -1.6514E+01  1.6560E+01 -4.4517E-01 -5.3267E+00 -8.9653E+02  1.0436E+03 -7.2855E+02
   4960 -1.9609E+01  3.0111E+00  9.8416E+00 -1.2584E+01  8.3262E+00 -6.5147E+00  6.5164E+03 -2.7339E+03  2.6908E+03

 time elapsed since job start =          88.755 seconds

