
                    DL_POLY Classic 1.2

                              Running on    8 nodes


 ************************************************************************************************************************
 ************************************************************************************************************************
 ************************************************************************************************************************
 ***************     DL_POLY TEST CASE 31: Linear molecule fluid                                          ***************
 ************************************************************************************************************************
 ************************************************************************************************************************
 ************************************************************************************************************************


 SIMULATION CONTROL PARAMETERS


 velocity verlet integration selected

 simulation temperature           2.0000E+02

 simulation pressure (katm)       1.0000E-01

 Nose-Hoover  (Melchionna) isotropic N-P-T 
 thermostat relaxation time       1.0000E-01
 barostat relaxation time         1.0000E+00

 selected number of timesteps         5000

 equilibration period                  100

 multiple timestep interval              1

 data printing interval                 10

 data stacking interval                100

 statistics file interval               10

 simulation timestep              2.0000E-03

 force capping :                  1.0000E+03 kT/A

 real space cut off               8.0000E+00

 border width of Verlet shell     5.0000E-01


 electrostatic potential terms off

 link cells option deactivated

 user allocated job time (h)      1.0000

 job closure time        (s)     100.000


SYSTEM SPECIFICATION

 energy units=kjoule/mol 


 number of molecular types               1

 molecular species type                  1


 name of species:             Linear Chain                            

 number of molecules                   675

 number of atoms/sites                   6


 atomic characteristics:

                      site     name          mass        charge    repeat    freeze

                         1     C_3         15.00000     0.00000         1         0
                         2     C_1         12.00000     0.00000         1         0
                         3     C_1         12.00000     0.00000         1         0
                         4     C_1         12.00000     0.00000         1         0
                         5     C_1         12.00000     0.00000         1         0
                         6     C_3         15.00000     0.00000         1         0

 number of rigid units                   1

 rigid body details:

                           unit   indices

                              1         1         2         3         4         5         6


 number of specified pair potentials         3


                atom 1  atom 2      key                              parameters


                C_3     C_3       lj       3.97500E-01  3.47300E+00
                C_3     C_1       lj       3.97500E-01  3.47300E+00
                C_1     C_1       lj       3.97500E-01  3.47300E+00

 configuration file name: 

          DL_POLY TEST CASE 31: Linear molecule fluid                                     


 selected image convention               3


 simulation cell vectors


                        47.133025    0.000000    0.000000
                         0.000000   47.133025    0.000000
                         0.000000    0.000000   47.133025


 system volume            104707.056727    


             summary of rigid body set up

 group of type          1
             total mass           78.0000000000
             rot. inertia        485.1000025103      485.1000025103        0.0000000000

             site        a coord        b coord        c coord
                1    0.00000E+00    0.00000E+00    3.50000E+00
                2    0.00000E+00    0.00000E+00    2.10000E+00
                3    0.00000E+00    2.30149E-08    7.00000E-01
                4    0.00000E+00   -3.88542E-08   -7.00000E-01
                5    0.00000E+00   -3.98215E-08   -2.10000E+00
                6    0.00000E+00    3.61243E-08   -3.50000E+00


 total degrees of freedom                      3372.
 rotational degrees of freedom                 1350.
 shell pseudo degrees of freedom                  0.


 sample of starting configuration

      i       x(i)        y(i)        z(i)       vx(i)       vy(i)       vz(i)       fx(i)       fy(i)       fz(i)


      1 -2.1480E+00 -6.3083E+00 -1.1908E+01  4.2200E+00 -1.3592E+00 -1.4444E+00  3.5102E+01  2.1106E+02 -4.6831E+01
    204 -2.0525E+01  1.9103E+01  2.4268E+00 -1.6352E+00  3.0569E+00  2.3348E+00 -2.1561E+03 -5.9954E+01 -1.2429E+03
    407 -4.7700E+00  1.9166E+01 -1.7765E+01 -9.9173E-01 -1.0048E-01 -1.1204E+00 -7.5708E+01 -5.6235E+01 -1.4563E+02
    610  1.3822E+01  6.6107E+00 -1.3339E+01  1.0966E+00 -2.6856E-01  1.4318E+00 -2.0079E+01  5.5667E+02 -7.9837E+01
    813 -6.0819E+00  1.4691E+01 -1.4187E+01 -1.1954E+00 -1.2043E+00 -1.1957E-02 -4.7686E+02 -2.0725E+02 -7.5684E+01
   1016 -1.9828E+01 -9.3324E+00 -1.7403E+01 -3.1578E+00 -7.5999E-02  2.9568E-01  5.6615E+01 -4.8439E+01  5.3876E+01
   1219  4.4173E+00  2.1825E-01  2.2179E+01 -2.2682E+00  1.4802E+00 -9.6626E-01  5.4999E+02 -3.6776E+02 -5.1984E+02
   1422  1.3194E+01  8.5333E+00  5.4073E+00 -7.1783E-02  1.5365E+00 -3.2941E-01  1.2112E+02 -3.1379E+02  6.6688E+01
   1625  1.0422E+01 -2.1866E+01 -4.3347E+00 -1.1061E+00  6.0004E+00 -2.6382E+00  1.9652E+01  4.7991E+01 -3.5990E+01
   1828  2.2347E+01  1.6798E+00 -1.6744E+01 -4.2296E-01 -9.2767E-01 -1.7935E-02 -2.8173E+01 -3.9142E+01 -5.3105E+01
   2031  9.3709E+00 -7.9623E-01 -5.1755E+00 -6.3515E-01  2.1562E-02  3.0988E-01 -1.8207E+01 -1.0282E+02  7.7653E+01
   2234  1.7941E+01  1.9623E+01  5.2345E+00  4.0738E+00  7.8850E-01  2.2305E+00  8.5922E+01 -2.3674E+02  1.5375E+02
   2437  8.8786E+00  1.8715E+01  4.1686E+00 -2.8577E-01 -1.1965E+00 -1.1878E+00 -6.3253E+00  4.3632E+01 -1.5484E+02
   2640  1.9218E+01 -1.5351E+01  1.5881E+01  9.1803E-01 -3.8726E+00 -2.8540E+00  1.0797E+02  1.7855E+02 -1.0054E+03
   2843 -1.8977E+00  1.7128E+01 -3.7733E+00 -3.6138E+00  1.9912E+00  1.3104E+00  2.1746E+02 -2.4945E+02 -2.1663E+02
   3046 -9.1435E+00 -1.5801E+01  1.6220E+01 -1.0882E-01  1.9455E+00  2.4901E-01  1.1540E+02  1.5241E+01 -1.7797E+01
   3249 -2.0207E+01  1.3486E+01  8.8416E+00  1.1042E-01  7.4897E-01  5.9926E-01  1.9921E+02  8.4897E+01  4.7864E+02
   3452 -8.7975E+00  2.1867E+01  2.2014E+01  9.3862E-01 -1.2664E+00 -1.5006E+00 -3.8423E+02 -4.3599E+01  9.4564E+01
   3655 -2.2667E+01 -1.3735E+01  1.7064E+01  9.3721E-01  4.8179E-01  1.0745E+00 -9.9186E+00  2.8173E+02  3.5731E+01
   3858 -4.2702E+00  7.4014E-01  2.2122E+01 -1.1264E+00  1.6601E+00  6.2781E+00 -5.2751E+01 -1.8678E+02  2.2208E+02


long range correction for: vdw energy    -0.178393E+04
                         : vdw pressure  -0.557177E+00

 time elapsed since job start =           1.110 seconds

 ------------------------------------------------------------------------------------------------------------------------

     step     eng_tot    temp_tot     eng_cfg     eng_vdw     eng_cou     eng_bnd     eng_ang     eng_dih     eng_tet
 time          eng_pv    temp_rot     vir_cfg     vir_vdw     vir_cou     vir_bnd     vir_ang     vir_con     vir_tet
 cpu time      volume    temp_shl     eng_shl     vir_shl       alpha        beta       gamma     vir_pmf       press

 ------------------------------------------------------------------------------------------------------------------------
        1 -1.1811E+04  2.0000E+02 -1.5254E+04 -1.5254E+04  0.0000E+00  0.0000E+00  0.0000E+00  0.0000E+00  0.0000E+00
   2.000f -1.2424E+04  2.0141E+02  3.2690E+03  1.7390E+04  0.0000E+00  0.0000E+00  0.0000E+00  0.0000E+00  0.0000E+00
   1.200s  1.0471E+05  0.0000E+00  0.0000E+00  0.0000E+00  9.0000E+01  9.0000E+01  9.0000E+01  0.0000E+00  4.0397E-03

  rolling -1.1811E+04  2.0000E+02 -1.5254E+04 -1.5254E+04  0.0000E+00  0.0000E+00  0.0000E+00  0.0000E+00  0.0000E+00
 averages -1.2424E+04  2.0141E+02  3.2690E+03  1.7390E+04  0.0000E+00  0.0000E+00  0.0000E+00  0.0000E+00  0.0000E+00
           1.0471E+05  0.0000E+00  0.0000E+00  0.0000E+00  9.0000E+01  9.0000E+01  9.0000E+01  0.0000E+00  4.0397E-03
 ------------------------------------------------------------------------------------------------------------------------
       10 -1.1810E+04  1.9995E+02 -1.5252E+04 -1.5252E+04  0.0000E+00  0.0000E+00  0.0000E+00  0.0000E+00  0.0000E+00
  20.000f -1.2386E+04  2.0243E+02  3.1445E+03  1.7189E+04  0.0000E+00  0.0000E+00  0.0000E+00  0.0000E+00  0.0000E+00
   1.357s  1.0467E+05  0.0000E+00  0.0000E+00  0.0000E+00  9.0000E+01  9.0000E+01  9.0000E+01  0.0000E+00  9.8695E-03

  rolling -1.1811E+04  1.9996E+02 -1.5253E+04 -1.5253E+04  0.0000E+00  0.0000E+00  0.0000E+00  0.0000E+00  0.0000E+00
 averages -1.2407E+04  2.0194E+02  3.2114E+03  1.7295E+04  0.0000E+00  0.0000E+00  0.0000E+00  0.0000E+00  0.0000E+00
           1.0469E+05  0.0000E+00  0.0000E+00  0.0000E+00  9.0000E+01  9.0000E+01  9.0000E+01  0.0000E+00  6.6851E-03
 ------------------------------------------------------------------------------------------------------------------------
       20 -1.1811E+04  2.0017E+02 -1.5255E+04 -1.5255E+04  0.0000E+00  0.0000E+00  0.0000E+00  0.0000E+00  0.0000E+00
  40.000f -1.2312E+04  2.0330E+02  2.9172E+03  1.6894E+04  0.0000E+00  0.0000E+00  0.0000E+00  0.0000E+00  0.0000E+00
   1.589s  1.0460E+05  0.0000E+00  0.0000E+00  0.0000E+00  9.0000E+01  9.0000E+01  9.0000E+01  0.0000E+00  2.1565E-02

  rolling -1.1810E+04  2.0001E+02 -1.5253E+04 -1.5253E+04  0.0000E+00  0.0000E+00  0.0000E+00  0.0000E+00  0.0000E+00
 averages -1.2378E+04  2.0244E+02  3.1223E+03  1.7164E+04  0.0000E+00  0.0000E+00  0.0000E+00  0.0000E+00  0.0000E+00
           1.0466E+05  0.0000E+00  0.0000E+00  0.0000E+00  9.0000E+01  9.0000E+01  9.0000E+01  0.0000E+00  1.1116E-02
 ------------------------------------------------------------------------------------------------------------------------
       30 -1.1811E+04  2.0013E+02 -1.5255E+04 -1.5255E+04  0.0000E+00  0.0000E+00  0.0000E+00  0.0000E+00  0.0000E+00
  60.000f -1.2119E+04  2.0344E+02  2.3362E+03  1.6437E+04  0.0000E+00  0.0000E+00  0.0000E+00  0.0000E+00  0.0000E+00
   1.824s  1.0449E+05  0.0000E+00  0.0000E+00  0.0000E+00  9.0000E+01  9.0000E+01  9.0000E+01  0.0000E+00  5.1815E-02

  rolling -1.1811E+04  2.0007E+02 -1.5254E+04 -1.5254E+04  0.0000E+00  0.0000E+00  0.0000E+00  0.0000E+00  0.0000E+00
 averages -1.2325E+04  2.0278E+02  2.9610E+03  1.6996E+04  0.0000E+00  0.0000E+00  0.0000E+00  0.0000E+00  0.0000E+00
           1.0462E+05  0.0000E+00  0.0000E+00  0.0000E+00  9.0000E+01  9.0000E+01  9.0000E+01  0.0000E+00  1.9445E-02
 ------------------------------------------------------------------------------------------------------------------------
       40 -1.1811E+04  1.9952E+02 -1.5246E+04 -1.5246E+04  0.0000E+00  0.0000E+00  0.0000E+00  0.0000E+00  0.0000E+00
  80.000f -1.1788E+04  2.0303E+02  1.3323E+03  1.5801E+04  0.0000E+00  0.0000E+00  0.0000E+00  0.0000E+00  0.0000E+00
   1.998s  1.0436E+05  0.0000E+00  0.0000E+00  0.0000E+00  9.0000E+01  9.0000E+01  9.0000E+01  0.0000E+00  1.0378E-01

  rolling -1.1811E+04  2.0001E+02 -1.5253E+04 -1.5253E+04  0.0000E+00  0.0000E+00  0.0000E+00  0.0000E+00  0.0000E+00
 averages -1.2230E+04  2.0289E+02  2.6733E+03  1.6772E+04  0.0000E+00  0.0000E+00  0.0000E+00  0.0000E+00  0.0000E+00
           1.0457E+05  0.0000E+00  0.0000E+00  0.0000E+00  9.0000E+01  9.0000E+01  9.0000E+01  0.0000E+00  3.4343E-02
 ------------------------------------------------------------------------------------------------------------------------
       50 -1.1812E+04  1.9846E+02 -1.5231E+04 -1.5231E+04  0.0000E+00  0.0000E+00  0.0000E+00  0.0000E+00  0.0000E+00
 100.000f -1.1397E+04  2.0202E+02  1.4157E+02  1.5076E+04  0.0000E+00  0.0000E+00  0.0000E+00  0.0000E+00  0.0000E+00
   2.244s  1.0424E+05  0.0000E+00  0.0000E+00  0.0000E+00  9.0000E+01  9.0000E+01  9.0000E+01  0.0000E+00  1.6535E-01

  rolling -1.1811E+04  1.9980E+02 -1.5250E+04 -1.5250E+04  0.0000E+00  0.0000E+00  0.0000E+00  0.0000E+00  0.0000E+00
 averages -1.2099E+04  2.0283E+02  2.2750E+03  1.6499E+04  0.0000E+00  0.0000E+00  0.0000E+00  0.0000E+00  0.0000E+00
           1.0452E+05  0.0000E+00  0.0000E+00  0.0000E+00  9.0000E+01  9.0000E+01  9.0000E+01  0.0000E+00  5.4957E-02
 ------------------------------------------------------------------------------------------------------------------------
       60 -1.1812E+04  1.9717E+02 -1.5210E+04 -1.5210E+04  0.0000E+00  0.0000E+00  0.0000E+00  0.0000E+00  0.0000E+00
 120.000f -1.1032E+04  1.9997E+02 -9.5576E+02  1.4383E+04  0.0000E+00  0.0000E+00  0.0000E+00  0.0000E+00  0.0000E+00
   2.476s  1.0414E+05  0.0000E+00  0.0000E+00  0.0000E+00  9.0000E+01  9.0000E+01  9.0000E+01  0.0000E+00  2.2237E-01

  rolling -1.1811E+04  1.9946E+02 -1.5245E+04 -1.5245E+04  0.0000E+00  0.0000E+00  0.0000E+00  0.0000E+00  0.0000E+00
 averages -1.1948E+04  2.0252E+02  1.8153E+03  1.6196E+04  0.0000E+00  0.0000E+00  0.0000E+00  0.0000E+00  0.0000E+00
           1.0446E+05  0.0000E+00  0.0000E+00  0.0000E+00  9.0000E+01  9.0000E+01  9.0000E+01  0.0000E+00  7.8760E-02
 ------------------------------------------------------------------------------------------------------------------------
       70 -1.1812E+04  1.9645E+02 -1.5194E+04 -1.5194E+04  0.0000E+00  0.0000E+00  0.0000E+00  0.0000E+00  0.0000E+00
 140.000f -1.0797E+04  1.9770E+02 -1.6400E+03  1.3968E+04  0.0000E+00  0.0000E+00  0.0000E+00  0.0000E+00  0.0000E+00
   2.709s  1.0409E+05  0.0000E+00  0.0000E+00  0.0000E+00  9.0000E+01  9.0000E+01  9.0000E+01  0.0000E+00  2.5865E-01

  rolling -1.1811E+04  1.9907E+02 -1.5239E+04 -1.5239E+04  0.0000E+00  0.0000E+00  0.0000E+00  0.0000E+00  0.0000E+00
 averages -1.1796E+04  2.0197E+02  1.3590E+03  1.5900E+04  0.0000E+00  0.0000E+00  0.0000E+00  0.0000E+00  0.0000E+00
           1.0441E+05  0.0000E+00  0.0000E+00  0.0000E+00  9.0000E+01  9.0000E+01  9.0000E+01  0.0000E+00  1.0246E-01
 ------------------------------------------------------------------------------------------------------------------------
 ------------------------------------------------------------------------------------------------------------------------

     step     eng_tot    temp_tot     eng_cfg     eng_vdw     eng_cou     eng_bnd     eng_ang     eng_dih     eng_tet
 time          eng_pv    temp_rot     vir_cfg     vir_vdw     vir_cou     vir_bnd     vir_ang     vir_con     vir_tet
 cpu time      volume    temp_shl     eng_shl     vir_shl       alpha        beta       gamma     vir_pmf       press

 ------------------------------------------------------------------------------------------------------------------------
       80 -1.1814E+04  1.9686E+02 -1.5192E+04 -1.5192E+04  0.0000E+00  0.0000E+00  0.0000E+00  0.0000E+00  0.0000E+00
 160.000f -1.0781E+04  1.9646E+02 -1.6395E+03  1.4000E+04  0.0000E+00  0.0000E+00  0.0000E+00  0.0000E+00  0.0000E+00
   2.883s  1.0411E+05  0.0000E+00  0.0000E+00  0.0000E+00  9.0000E+01  9.0000E+01  9.0000E+01  0.0000E+00  2.5990E-01

  rolling -1.1812E+04  1.9876E+02 -1.5233E+04 -1.5233E+04  0.0000E+00  0.0000E+00  0.0000E+00  0.0000E+00  0.0000E+00
 averages -1.1668E+04  2.0134E+02  9.7667E+02  1.5656E+04  0.0000E+00  0.0000E+00  0.0000E+00  0.0000E+00  0.0000E+00
           1.0437E+05  0.0000E+00  0.0000E+00  0.0000E+00  9.0000E+01  9.0000E+01  9.0000E+01  0.0000E+00  1.2246E-01
 ------------------------------------------------------------------------------------------------------------------------
       90 -1.1813E+04  1.9803E+02 -1.5197E+04 -1.5197E+04  0.0000E+00  0.0000E+00  0.0000E+00  0.0000E+00  0.0000E+00
 180.000f -1.0988E+04  1.9640E+02 -9.5164E+02  1.4400E+04  0.0000E+00  0.0000E+00  0.0000E+00  0.0000E+00  0.0000E+00
   3.121s  1.0420E+05  0.0000E+00  0.0000E+00  0.0000E+00  9.0000E+01  9.0000E+01  9.0000E+01  0.0000E+00  2.2539E-01

  rolling -1.1812E+04  1.9861E+02 -1.5228E+04 -1.5228E+04  0.0000E+00  0.0000E+00  0.0000E+00  0.0000E+00  0.0000E+00
 averages -1.1580E+04  2.0078E+02  7.2216E+02  1.5493E+04  0.0000E+00  0.0000E+00  0.0000E+00  0.0000E+00  0.0000E+00
           1.0435E+05  0.0000E+00  0.0000E+00  0.0000E+00  9.0000E+01  9.0000E+01  9.0000E+01  0.0000E+00  1.3593E-01
 ------------------------------------------------------------------------------------------------------------------------
      100 -1.1813E+04  1.9984E+02 -1.5208E+04 -1.5208E+04  0.0000E+00  0.0000E+00  0.0000E+00  0.0000E+00  0.0000E+00
 200.000f -1.1366E+04  1.9749E+02  2.6239E+02  1.5111E+04  0.0000E+00  0.0000E+00  0.0000E+00  0.0000E+00  0.0000E+00
   3.359s  1.0434E+05  0.0000E+00  0.0000E+00  0.0000E+00  9.0000E+01  9.0000E+01  9.0000E+01  0.0000E+00  1.6353E-01

  rolling -1.1812E+04  1.9865E+02 -1.5226E+04 -1.5226E+04  0.0000E+00  0.0000E+00  0.0000E+00  0.0000E+00  0.0000E+00
 averages -1.1541E+04  2.0039E+02  6.1845E+02  1.5421E+04  0.0000E+00  0.0000E+00  0.0000E+00  0.0000E+00  0.0000E+00
           1.0434E+05  0.0000E+00  0.0000E+00  0.0000E+00  9.0000E+01  9.0000E+01  9.0000E+01  0.0000E+00  1.4163E-01
 ------------------------------------------------------------------------------------------------------------------------
      110 -1.1812E+04  2.0183E+02 -1.5222E+04 -1.5222E+04  0.0000E+00  0.0000E+00  0.0000E+00  0.0000E+00  0.0000E+00
 220.000f -1.1769E+04  1.9902E+02  1.5545E+03  1.5965E+04  0.0000E+00  0.0000E+00  0.0000E+00  0.0000E+00  0.0000E+00
   3.534s  1.0451E+05  0.0000E+00  0.0000E+00  0.0000E+00  9.0000E+01  9.0000E+01  9.0000E+01  0.0000E+00  9.7756E-02

  rolling -1.1812E+04  1.9875E+02 -1.5222E+04 -1.5222E+04  0.0000E+00  0.0000E+00  0.0000E+00  0.0000E+00  0.0000E+00
 averages -1.1459E+04  2.0004E+02  3.9672E+02  1.5250E+04  0.0000E+00  0.0000E+00  0.0000E+00  0.0000E+00  0.0000E+00
           1.0431E+05  0.0000E+00  0.0000E+00  0.0000E+00  9.0000E+01  9.0000E+01  9.0000E+01  0.0000E+00  1.5359E-01
 ------------------------------------------------------------------------------------------------------------------------
      120 -1.1812E+04  2.0289E+02 -1.5224E+04 -1.5224E+04  0.0000E+00  0.0000E+00  0.0000E+00  0.0000E+00  0.0000E+00
 240.000f -1.2035E+04  1.9971E+02  2.4097E+03  1.6672E+04  0.0000E+00  0.0000E+00  0.0000E+00  0.0000E+00  0.0000E+00
   3.767s  1.0467E+05  0.0000E+00  0.0000E+00  0.0000E+00  9.0000E+01  9.0000E+01  9.0000E+01  0.0000E+00  5.4115E-02

  rolling -1.1812E+04  1.9899E+02 -1.5219E+04 -1.5219E+04  0.0000E+00  0.0000E+00  0.0000E+00  0.0000E+00  0.0000E+00
 averages -1.1417E+04  1.9969E+02  3.0030E+02  1.5184E+04  0.0000E+00  0.0000E+00  0.0000E+00  0.0000E+00  0.0000E+00
           1.0431E+05  0.0000E+00  0.0000E+00  0.0000E+00  9.0000E+01  9.0000E+01  9.0000E+01  0.0000E+00  1.5919E-01
 ------------------------------------------------------------------------------------------------------------------------
      130 -1.1812E+04  2.0290E+02 -1.5216E+04 -1.5216E+04  0.0000E+00  0.0000E+00  0.0000E+00  0.0000E+00  0.0000E+00
 260.000f -1.2165E+04  1.9997E+02  2.8241E+03  1.7142E+04  0.0000E+00  0.0000E+00  0.0000E+00  0.0000E+00  0.0000E+00
   3.999s  1.0482E+05  0.0000E+00  0.0000E+00  0.0000E+00  9.0000E+01  9.0000E+01  9.0000E+01  0.0000E+00  3.2309E-02

  rolling -1.1812E+04  1.9927E+02 -1.5216E+04 -1.5216E+04  0.0000E+00  0.0000E+00  0.0000E+00  0.0000E+00  0.0000E+00
 averages -1.1407E+04  1.9933E+02  3.0290E+02  1.5213E+04  0.0000E+00  0.0000E+00  0.0000E+00  0.0000E+00  0.0000E+00
           1.0433E+05  0.0000E+00  0.0000E+00  0.0000E+00  9.0000E+01  9.0000E+01  9.0000E+01  0.0000E+00  1.5966E-01
 ------------------------------------------------------------------------------------------------------------------------
      140 -1.1813E+04  2.0254E+02 -1.5205E+04 -1.5205E+04  0.0000E+00  0.0000E+00  0.0000E+00  0.0000E+00  0.0000E+00
 280.000f -1.2259E+04  2.0059E+02  3.1088E+03  1.7456E+04  0.0000E+00  0.0000E+00  0.0000E+00  0.0000E+00  0.0000E+00
   4.243s  1.0495E+05  0.0000E+00  0.0000E+00  0.0000E+00  9.0000E+01  9.0000E+01  9.0000E+01  0.0000E+00  1.6557E-02

  rolling -1.1813E+04  1.9956E+02 -1.5212E+04 -1.5212E+04  0.0000E+00  0.0000E+00  0.0000E+00  0.0000E+00  0.0000E+00
 averages -1.1434E+04  1.9903E+02  4.1924E+02  1.5335E+04  0.0000E+00  0.0000E+00  0.0000E+00  0.0000E+00  0.0000E+00
           1.0438E+05  0.0000E+00  0.0000E+00  0.0000E+00  9.0000E+01  9.0000E+01  9.0000E+01  0.0000E+00  1.5416E-01
 ------------------------------------------------------------------------------------------------------------------------
      150 -1.1814E+04  2.0270E+02 -1.5204E+04 -1.5204E+04  0.0000E+00  0.0000E+00  0.0000E+00  0.0000E+00  0.0000E+00
 300.000f -1.2434E+04  2.0196E+02  3.6301E+03  1.7756E+04  0.0000E+00  0.0000E+00  0.0000E+00  0.0000E+00  0.0000E+00
   4.420s  1.0503E+05  0.0000E+00  0.0000E+00  0.0000E+00  9.0000E+01  9.0000E+01  9.0000E+01  0.0000E+00 -1.1126E-02

  rolling -1.1813E+04  1.9991E+02 -1.5208E+04 -1.5208E+04  0.0000E+00  0.0000E+00  0.0000E+00  0.0000E+00  0.0000E+00
 averages -1.1511E+04  1.9890E+02  6.8807E+02  1.5556E+04  0.0000E+00  0.0000E+00  0.0000E+00  0.0000E+00  0.0000E+00
           1.0445E+05  0.0000E+00  0.0000E+00  0.0000E+00  9.0000E+01  9.0000E+01  9.0000E+01  0.0000E+00  1.4068E-01
 ------------------------------------------------------------------------------------------------------------------------
 ------------------------------------------------------------------------------------------------------------------------

     step     eng_tot    temp_tot     eng_cfg     eng_vdw     eng_cou     eng_bnd     eng_ang     eng_dih     eng_tet
 time          eng_pv    temp_rot     vir_cfg     vir_vdw     vir_cou     vir_bnd     vir_ang     vir_con     vir_tet
 cpu time      volume    temp_shl     eng_shl     vir_shl       alpha        beta       gamma     vir_pmf       press

 ------------------------------------------------------------------------------------------------------------------------
      160 -1.1815E+04  2.0347E+02 -1.5215E+04 -1.5215E+04  0.0000E+00  0.0000E+00  0.0000E+00  0.0000E+00  0.0000E+00
 320.000f -1.2659E+04  2.0323E+02  4.3107E+03  1.8024E+04  0.0000E+00  0.0000E+00  0.0000E+00  0.0000E+00  0.0000E+00
   4.653s  1.0507E+05  0.0000E+00  0.0000E+00  0.0000E+00  9.0000E+01  9.0000E+01  9.0000E+01  0.0000E+00 -4.6135E-02

  rolling -1.1813E+04  2.0045E+02 -1.5207E+04 -1.5207E+04  0.0000E+00  0.0000E+00  0.0000E+00  0.0000E+00  0.0000E+00
 averages -1.1648E+04  1.9908E+02  1.1374E+03  1.5879E+04  0.0000E+00  0.0000E+00  0.0000E+00  0.0000E+00  0.0000E+00
           1.0454E+05  0.0000E+00  0.0000E+00  0.0000E+00  9.0000E+01  9.0000E+01  9.0000E+01  0.0000E+00  1.1782E-01
 ------------------------------------------------------------------------------------------------------------------------
      170 -1.1816E+04  2.0384E+02 -1.5225E+04 -1.5225E+04  0.0000E+00  0.0000E+00  0.0000E+00  0.0000E+00  0.0000E+00
 340.000f -1.2777E+04  2.0278E+02  4.6685E+03  1.8050E+04  0.0000E+00  0.0000E+00  0.0000E+00  0.0000E+00  0.0000E+00
   4.886s  1.0504E+05  0.0000E+00  0.0000E+00  0.0000E+00  9.0000E+01  9.0000E+01  9.0000E+01  0.0000E+00 -6.3943E-02

  rolling -1.1813E+04  2.0116E+02 -1.5209E+04 -1.5209E+04  0.0000E+00  0.0000E+00  0.0000E+00  0.0000E+00  0.0000E+00
 averages -1.1833E+04  1.9953E+02  1.7303E+03  1.6274E+04  0.0000E+00  0.0000E+00  0.0000E+00  0.0000E+00  0.0000E+00
           1.0463E+05  0.0000E+00  0.0000E+00  0.0000E+00  9.0000E+01  9.0000E+01  9.0000E+01  0.0000E+00  8.7541E-02
 ------------------------------------------------------------------------------------------------------------------------
      180 -1.1816E+04  2.0347E+02 -1.5228E+04 -1.5228E+04  0.0000E+00  0.0000E+00  0.0000E+00  0.0000E+00  0.0000E+00
 360.000f -1.2710E+04  2.0081E+02  4.4531E+03  1.7743E+04  0.0000E+00  0.0000E+00  0.0000E+00  0.0000E+00  0.0000E+00
   5.065s  1.0494E+05  0.0000E+00  0.0000E+00  0.0000E+00  9.0000E+01  9.0000E+01  9.0000E+01  0.0000E+00 -5.2186E-02

  rolling -1.1813E+04  2.0187E+02 -1.5213E+04 -1.5213E+04  0.0000E+00  0.0000E+00  0.0000E+00  0.0000E+00  0.0000E+00
 averages -1.2031E+04  2.0001E+02  2.3600E+03  1.6669E+04  0.0000E+00  0.0000E+00  0.0000E+00  0.0000E+00  0.0000E+00
           1.0472E+05  0.0000E+00  0.0000E+00  0.0000E+00  9.0000E+01  9.0000E+01  9.0000E+01  0.0000E+00  5.5308E-02
 ------------------------------------------------------------------------------------------------------------------------
      190 -1.1817E+04  2.0272E+02 -1.5230E+04 -1.5230E+04  0.0000E+00  0.0000E+00  0.0000E+00  0.0000E+00  0.0000E+00
 380.000f -1.2482E+04  1.9900E+02  3.7296E+03  1.7199E+04  0.0000E+00  0.0000E+00  0.0000E+00  0.0000E+00  0.0000E+00
   5.304s  1.0478E+05  0.0000E+00  0.0000E+00  0.0000E+00  9.0000E+01  9.0000E+01  9.0000E+01  0.0000E+00 -1.4588E-02

  rolling -1.1814E+04  2.0243E+02 -1.5216E+04 -1.5216E+04  0.0000E+00  0.0000E+00  0.0000E+00  0.0000E+00  0.0000E+00
 averages -1.2203E+04  2.0035E+02  2.9005E+03  1.6996E+04  0.0000E+00  0.0000E+00  0.0000E+00  0.0000E+00  0.0000E+00
           1.0479E+05  0.0000E+00  0.0000E+00  0.0000E+00  9.0000E+01  9.0000E+01  9.0000E+01  0.0000E+00  2.7607E-02
 ------------------------------------------------------------------------------------------------------------------------
      200 -1.1817E+04  2.0196E+02 -1.5234E+04 -1.5234E+04  0.0000E+00  0.0000E+00  0.0000E+00  0.0000E+00  0.0000E+00
 400.000f -1.2152E+04  1.9906E+02  2.6740E+03  1.6508E+04  0.0000E+00  0.0000E+00  0.0000E+00  0.0000E+00  0.0000E+00
   5.537s  1.0458E+05  0.0000E+00  0.0000E+00  0.0000E+00  9.0000E+01  9.0000E+01  9.0000E+01  0.0000E+00  3.9376E-02

  rolling -1.1814E+04  2.0276E+02 -1.5219E+04 -1.5219E+04  0.0000E+00  0.0000E+00  0.0000E+00  0.0000E+00  0.0000E+00
 averages -1.2315E+04  2.0054E+02  3.2487E+03  1.7202E+04  0.0000E+00  0.0000E+00  0.0000E+00  0.0000E+00  0.0000E+00
           1.0483E+05  0.0000E+00  0.0000E+00  0.0000E+00  9.0000E+01  9.0000E+01  9.0000E+01  0.0000E+00  9.7346E-03
 ------------------------------------------------------------------------------------------------------------------------
      210 -1.1817E+04  2.0126E+02 -1.5240E+04 -1.5240E+04  0.0000E+00  0.0000E+00  0.0000E+00  0.0000E+00  0.0000E+00
 420.000f -1.1781E+04  2.0153E+02  1.4654E+03  1.5750E+04  0.0000E+00  0.0000E+00  0.0000E+00  0.0000E+00  0.0000E+00
   5.711s  1.0434E+05  0.0000E+00  0.0000E+00  0.0000E+00  9.0000E+01  9.0000E+01  9.0000E+01  0.0000E+00  1.0026E-01

  rolling -1.1815E+04  2.0282E+02 -1.5221E+04 -1.5221E+04  0.0000E+00  0.0000E+00  0.0000E+00  0.0000E+00  0.0000E+00
 averages -1.2351E+04  2.0073E+02  3.3516E+03  1.7253E+04  0.0000E+00  0.0000E+00  0.0000E+00  0.0000E+00  0.0000E+00
           1.0483E+05  0.0000E+00  0.0000E+00  0.0000E+00  9.0000E+01  9.0000E+01  9.0000E+01  0.0000E+00  4.3344E-03
 ------------------------------------------------------------------------------------------------------------------------
      220 -1.1816E+04  2.0026E+02 -1.5242E+04 -1.5242E+04  0.0000E+00  0.0000E+00  0.0000E+00  0.0000E+00  0.0000E+00
 440.000f -1.1379E+04  2.0471E+02  1.4982E+02  1.4919E+04  0.0000E+00  0.0000E+00  0.0000E+00  0.0000E+00  0.0000E+00
   5.944s  1.0411E+05  0.0000E+00  0.0000E+00  0.0000E+00  9.0000E+01  9.0000E+01  9.0000E+01  0.0000E+00  1.6617E-01

  rolling -1.1815E+04  2.0264E+02 -1.5223E+04 -1.5223E+04  0.0000E+00  0.0000E+00  0.0000E+00  0.0000E+00  0.0000E+00
 averages -1.2314E+04  2.0112E+02  3.2185E+03  1.7145E+04  0.0000E+00  0.0000E+00  0.0000E+00  0.0000E+00  0.0000E+00
           1.0479E+05  0.0000E+00  0.0000E+00  0.0000E+00  9.0000E+01  9.0000E+01  9.0000E+01  0.0000E+00  1.0850E-02
 ------------------------------------------------------------------------------------------------------------------------
      230 -1.1816E+04  1.9913E+02 -1.5243E+04 -1.5243E+04  0.0000E+00  0.0000E+00  0.0000E+00  0.0000E+00  0.0000E+00
 460.000f -1.1037E+04  2.0671E+02 -9.8167E+02  1.4154E+04  0.0000E+00  0.0000E+00  0.0000E+00  0.0000E+00  0.0000E+00
   6.188s  1.0391E+05  0.0000E+00  0.0000E+00  0.0000E+00  9.0000E+01  9.0000E+01  9.0000E+01  0.0000E+00  2.2313E-01

  rolling -1.1815E+04  2.0231E+02 -1.5225E+04 -1.5225E+04  0.0000E+00  0.0000E+00  0.0000E+00  0.0000E+00  0.0000E+00
 averages -1.2221E+04  2.0173E+02  2.9026E+03  1.6899E+04  0.0000E+00  0.0000E+00  0.0000E+00  0.0000E+00  0.0000E+00
           1.0472E+05  0.0000E+00  0.0000E+00  0.0000E+00  9.0000E+01  9.0000E+01  9.0000E+01  0.0000E+00  2.6621E-02
 ------------------------------------------------------------------------------------------------------------------------
 ------------------------------------------------------------------------------------------------------------------------

     step     eng_tot    temp_tot     eng_cfg     eng_vdw     eng_cou     eng_bnd     eng_ang     eng_dih     eng_tet
 time          eng_pv    temp_rot     vir_cfg     vir_vdw     vir_cou     vir_bnd     vir_ang     vir_con     vir_tet
 cpu time      volume    temp_shl     eng_shl     vir_shl       alpha        beta       gamma     vir_pmf       press

 ------------------------------------------------------------------------------------------------------------------------
      240 -1.1816E+04  1.9791E+02 -1.5242E+04 -1.5242E+04  0.0000E+00  0.0000E+00  0.0000E+00  0.0000E+00  0.0000E+00
 480.000f -1.0773E+04  2.0609E+02 -1.8484E+03  1.3547E+04  0.0000E+00  0.0000E+00  0.0000E+00  0.0000E+00  0.0000E+00
   6.363s  1.0376E+05  0.0000E+00  0.0000E+00  0.0000E+00  9.0000E+01  9.0000E+01  9.0000E+01  0.0000E+00  2.6766E-01

  rolling -1.1816E+04  2.0189E+02 -1.5229E+04 -1.5229E+04  0.0000E+00  0.0000E+00  0.0000E+00  0.0000E+00  0.0000E+00
 averages -1.2088E+04  2.0236E+02  2.4567E+03  1.6547E+04  0.0000E+00  0.0000E+00  0.0000E+00  0.0000E+00  0.0000E+00
           1.0461E+05  0.0000E+00  0.0000E+00  0.0000E+00  9.0000E+01  9.0000E+01  9.0000E+01  0.0000E+00  4.9108E-02
 ------------------------------------------------------------------------------------------------------------------------
      250 -1.1815E+04  1.9729E+02 -1.5247E+04 -1.5247E+04  0.0000E+00  0.0000E+00  0.0000E+00  0.0000E+00  0.0000E+00
 500.000f -1.0648E+04  2.0357E+02 -2.2535E+03  1.3302E+04  0.0000E+00  0.0000E+00  0.0000E+00  0.0000E+00  0.0000E+00
   6.596s  1.0368E+05  0.0000E+00  0.0000E+00  0.0000E+00  9.0000E+01  9.0000E+01  9.0000E+01  0.0000E+00  2.8978E-01

  rolling -1.1816E+04  2.0138E+02 -1.5233E+04 -1.5233E+04  0.0000E+00  0.0000E+00  0.0000E+00  0.0000E+00  0.0000E+00
 averages -1.1922E+04  2.0271E+02  1.9075E+03  1.6122E+04  0.0000E+00  0.0000E+00  0.0000E+00  0.0000E+00  0.0000E+00
           1.0448E+05  0.0000E+00  0.0000E+00  0.0000E+00  9.0000E+01  9.0000E+01  9.0000E+01  0.0000E+00  7.7085E-02
 ------------------------------------------------------------------------------------------------------------------------
      260 -1.1816E+04  1.9726E+02 -1.5260E+04 -1.5260E+04  0.0000E+00  0.0000E+00  0.0000E+00  0.0000E+00  0.0000E+00
 520.000f -1.0721E+04  1.9996E+02 -2.0337E+03  1.3471E+04  0.0000E+00  0.0000E+00  0.0000E+00  0.0000E+00  0.0000E+00
   6.829s  1.0368E+05  0.0000E+00  0.0000E+00  0.0000E+00  9.0000E+01  9.0000E+01  9.0000E+01  0.0000E+00  2.8029E-01

  rolling -1.1816E+04  2.0079E+02 -1.5237E+04 -1.5237E+04  0.0000E+00  0.0000E+00  0.0000E+00  0.0000E+00  0.0000E+00
 averages -1.1733E+04  2.0261E+02  1.2882E+03  1.5668E+04  0.0000E+00  0.0000E+00  0.0000E+00  0.0000E+00  0.0000E+00
           1.0434E+05  0.0000E+00  0.0000E+00  0.0000E+00  9.0000E+01  9.0000E+01  9.0000E+01  0.0000E+00  1.0887E-01
 ------------------------------------------------------------------------------------------------------------------------
      270 -1.1816E+04  1.9714E+02 -1.5270E+04 -1.5270E+04  0.0000E+00  0.0000E+00  0.0000E+00  0.0000E+00  0.0000E+00
 540.000f -1.0969E+04  1.9609E+02 -1.2854E+03  1.3911E+04  0.0000E+00  0.0000E+00  0.0000E+00  0.0000E+00  0.0000E+00
   7.062s  1.0375E+05  0.0000E+00  0.0000E+00  0.0000E+00  9.0000E+01  9.0000E+01  9.0000E+01  0.0000E+00  2.4281E-01

  rolling -1.1816E+04  2.0014E+02 -1.5241E+04 -1.5241E+04  0.0000E+00  0.0000E+00  0.0000E+00  0.0000E+00  0.0000E+00
 averages -1.1544E+04  2.0207E+02  6.6678E+02  1.5230E+04  0.0000E+00  0.0000E+00  0.0000E+00  0.0000E+00  0.0000E+00
           1.0421E+05  0.0000E+00  0.0000E+00  0.0000E+00  9.0000E+01  9.0000E+01  9.0000E+01  0.0000E+00  1.4088E-01
 ------------------------------------------------------------------------------------------------------------------------
      280 -1.1816E+04  1.9784E+02 -1.5287E+04 -1.5287E+04  0.0000E+00  0.0000E+00  0.0000E+00  0.0000E+00  0.0000E+00
 560.000f -1.1410E+04  1.9541E+02  4.2343E+01  1.4719E+04  0.0000E+00  0.0000E+00  0.0000E+00  0.0000E+00  0.0000E+00
   7.249s  1.0389E+05  0.0000E+00  0.0000E+00  0.0000E+00  9.0000E+01  9.0000E+01  9.0000E+01  0.0000E+00  1.7411E-01

  rolling -1.1816E+04  1.9951E+02 -1.5247E+04 -1.5247E+04  0.0000E+00  0.0000E+00  0.0000E+00  0.0000E+00  0.0000E+00
 averages -1.1388E+04  2.0142E+02  1.4624E+02  1.4871E+04  0.0000E+00  0.0000E+00  0.0000E+00  0.0000E+00  0.0000E+00
           1.0409E+05  0.0000E+00  0.0000E+00  0.0000E+00  9.0000E+01  9.0000E+01  9.0000E+01  0.0000E+00  1.6766E-01
 ------------------------------------------------------------------------------------------------------------------------
      290 -1.1815E+04  2.0010E+02 -1.5324E+04 -1.5324E+04  0.0000E+00  0.0000E+00  0.0000E+00  0.0000E+00  0.0000E+00
 580.000f -1.2025E+04  1.9967E+02  1.8862E+03  1.5925E+04  0.0000E+00  0.0000E+00  0.0000E+00  0.0000E+00  0.0000E+00
   7.482s  1.0405E+05  0.0000E+00  0.0000E+00  0.0000E+00  9.0000E+01  9.0000E+01  9.0000E+01  0.0000E+00  7.7835E-02

  rolling -1.1816E+04  1.9910E+02 -1.5254E+04 -1.5254E+04  0.0000E+00  0.0000E+00  0.0000E+00  0.0000E+00  0.0000E+00
 averages -1.1302E+04  2.0119E+02 -1.5993E+02  1.4661E+04  0.0000E+00  0.0000E+00  0.0000E+00  0.0000E+00  0.0000E+00
           1.0401E+05  0.0000E+00  0.0000E+00  0.0000E+00  9.0000E+01  9.0000E+01  9.0000E+01  0.0000E+00  1.8325E-01
 ------------------------------------------------------------------------------------------------------------------------
      300 -1.1815E+04  2.0269E+02 -1.5365E+04 -1.5365E+04  0.0000E+00  0.0000E+00  0.0000E+00  0.0000E+00  0.0000E+00
 600.000f -1.2627E+04  2.0540E+02  3.6884E+03  1.7165E+04  0.0000E+00  0.0000E+00  0.0000E+00  0.0000E+00  0.0000E+00
   7.715s  1.0421E+05  0.0000E+00  0.0000E+00  0.0000E+00  9.0000E+01  9.0000E+01  9.0000E+01  0.0000E+00 -1.6321E-02

  rolling -1.1816E+04  1.9903E+02 -1.5266E+04 -1.5266E+04  0.0000E+00  0.0000E+00  0.0000E+00  0.0000E+00  0.0000E+00
 averages -1.1308E+04  2.0160E+02 -1.8510E+02  1.4642E+04  0.0000E+00  0.0000E+00  0.0000E+00  0.0000E+00  0.0000E+00
           1.0395E+05  0.0000E+00  0.0000E+00  0.0000E+00  9.0000E+01  9.0000E+01  9.0000E+01  0.0000E+00  1.8423E-01
 ------------------------------------------------------------------------------------------------------------------------
      310 -1.1815E+04  2.0348E+02 -1.5384E+04 -1.5384E+04  0.0000E+00  0.0000E+00  0.0000E+00  0.0000E+00  0.0000E+00
 620.000f -1.2982E+04  2.0782E+02  4.7249E+03  1.7906E+04  0.0000E+00  0.0000E+00  0.0000E+00  0.0000E+00  0.0000E+00
   7.890s  1.0431E+05  0.0000E+00  0.0000E+00  0.0000E+00  9.0000E+01  9.0000E+01  9.0000E+01  0.0000E+00 -7.0840E-02

  rolling -1.1816E+04  1.9921E+02 -1.5280E+04 -1.5280E+04  0.0000E+00  0.0000E+00  0.0000E+00  0.0000E+00  0.0000E+00
 averages -1.1398E+04  2.0229E+02  4.6816E+01  1.4795E+04  0.0000E+00  0.0000E+00  0.0000E+00  0.0000E+00  0.0000E+00
           1.0393E+05  0.0000E+00  0.0000E+00  0.0000E+00  9.0000E+01  9.0000E+01  9.0000E+01  0.0000E+00  1.7195E-01
 ------------------------------------------------------------------------------------------------------------------------
 ------------------------------------------------------------------------------------------------------------------------

     step     eng_tot    temp_tot     eng_cfg     eng_vdw     eng_cou     eng_bnd     eng_ang     eng_dih     eng_tet
 time          eng_pv    temp_rot     vir_cfg     vir_vdw     vir_cou     vir_bnd     vir_ang     vir_con     vir_tet
 cpu time      volume    temp_shl     eng_shl     vir_shl       alpha        beta       gamma     vir_pmf       press

 ------------------------------------------------------------------------------------------------------------------------
      320 -1.1814E+04  2.0221E+02 -1.5376E+04 -1.5376E+04  0.0000E+00  0.0000E+00  0.0000E+00  0.0000E+00  0.0000E+00
 640.000f -1.3037E+04  2.0665E+02  4.8389E+03  1.7989E+04  0.0000E+00  0.0000E+00  0.0000E+00  0.0000E+00  0.0000E+00
   8.128s  1.0435E+05  0.0000E+00  0.0000E+00  0.0000E+00  9.0000E+01  9.0000E+01  9.0000E+01  0.0000E+00 -7.7964E-02

  rolling -1.1816E+04  1.9942E+02 -1.5294E+04 -1.5294E+04  0.0000E+00  0.0000E+00  0.0000E+00  0.0000E+00  0.0000E+00
 averages -1.1545E+04  2.0269E+02  4.5790E+02  1.5065E+04  0.0000E+00  0.0000E+00  0.0000E+00  0.0000E+00  0.0000E+00
           1.0395E+05  0.0000E+00  0.0000E+00  0.0000E+00  9.0000E+01  9.0000E+01  9.0000E+01  0.0000E+00  1.5049E-01
 ------------------------------------------------------------------------------------------------------------------------
      330 -1.1814E+04  2.0007E+02 -1.5360E+04 -1.5360E+04  0.0000E+00  0.0000E+00  0.0000E+00  0.0000E+00  0.0000E+00
 660.000f -1.2896E+04  2.0442E+02  4.3377E+03  1.7622E+04  0.0000E+00  0.0000E+00  0.0000E+00  0.0000E+00  0.0000E+00
   8.366s  1.0431E+05  0.0000E+00  0.0000E+00  0.0000E+00  9.0000E+01  9.0000E+01  9.0000E+01  0.0000E+00 -5.3570E-02

  rolling -1.1815E+04  1.9957E+02 -1.5306E+04 -1.5306E+04  0.0000E+00  0.0000E+00  0.0000E+00  0.0000E+00  0.0000E+00
 averages -1.1725E+04  2.0264E+02  9.6850E+02  1.5398E+04  0.0000E+00  0.0000E+00  0.0000E+00  0.0000E+00  0.0000E+00
           1.0398E+05  0.0000E+00  0.0000E+00  0.0000E+00  9.0000E+01  9.0000E+01  9.0000E+01  0.0000E+00  1.2393E-01
 ------------------------------------------------------------------------------------------------------------------------
      340 -1.1815E+04  1.9746E+02 -1.5337E+04 -1.5337E+04  0.0000E+00  0.0000E+00  0.0000E+00  0.0000E+00  0.0000E+00
 680.000f -1.2556E+04  2.0174E+02  3.2321E+03  1.6892E+04  0.0000E+00  0.0000E+00  0.0000E+00  0.0000E+00  0.0000E+00
   8.599s  1.0421E+05  0.0000E+00  0.0000E+00  0.0000E+00  9.0000E+01  9.0000E+01  9.0000E+01  0.0000E+00  2.0740E-03

  rolling -1.1815E+04  1.9959E+02 -1.5317E+04 -1.5317E+04  0.0000E+00  0.0000E+00  0.0000E+00  0.0000E+00  0.0000E+00
 averages -1.1909E+04  2.0228E+02  1.4946E+03  1.5743E+04  0.0000E+00  0.0000E+00  0.0000E+00  0.0000E+00  0.0000E+00
           1.0402E+05  0.0000E+00  0.0000E+00  0.0000E+00  9.0000E+01  9.0000E+01  9.0000E+01  0.0000E+00  9.6503E-02
 ------------------------------------------------------------------------------------------------------------------------
      350 -1.1815E+04  1.9509E+02 -1.5314E+04 -1.5314E+04  0.0000E+00  0.0000E+00  0.0000E+00  0.0000E+00  0.0000E+00
 700.000f -1.2089E+04  1.9867E+02  1.7688E+03  1.6006E+04  0.0000E+00  0.0000E+00  0.0000E+00  0.0000E+00  0.0000E+00
   8.774s  1.0406E+05  0.0000E+00  0.0000E+00  0.0000E+00  9.0000E+01  9.0000E+01  9.0000E+01  0.0000E+00  7.7212E-02

  rolling -1.1815E+04  1.9945E+02 -1.5325E+04 -1.5325E+04  0.0000E+00  0.0000E+00  0.0000E+00  0.0000E+00  0.0000E+00
 averages -1.2070E+04  2.0181E+02  1.9507E+03  1.6046E+04  0.0000E+00  0.0000E+00  0.0000E+00  0.0000E+00  0.0000E+00
           1.0407E+05  0.0000E+00  0.0000E+00  0.0000E+00  9.0000E+01  9.0000E+01  9.0000E+01  0.0000E+00  7.2537E-02
 ------------------------------------------------------------------------------------------------------------------------
      360 -1.1816E+04  1.9386E+02 -1.5302E+04 -1.5302E+04  0.0000E+00  0.0000E+00  0.0000E+00  0.0000E+00  0.0000E+00
 720.000f -1.1635E+04  1.9571E+02  3.8773E+02  1.5239E+04  0.0000E+00  0.0000E+00  0.0000E+00  0.0000E+00  0.0000E+00
   9.006s  1.0391E+05  0.0000E+00  0.0000E+00  0.0000E+00  9.0000E+01  9.0000E+01  9.0000E+01  0.0000E+00  1.4986E-01

  rolling -1.1815E+04  1.9915E+02 -1.5330E+04 -1.5330E+04  0.0000E+00  0.0000E+00  0.0000E+00  0.0000E+00  0.0000E+00
 averages -1.2186E+04  2.0134E+02  2.2677E+03  1.6266E+04  0.0000E+00  0.0000E+00  0.0000E+00  0.0000E+00  0.0000E+00
           1.0410E+05  0.0000E+00  0.0000E+00  0.0000E+00  9.0000E+01  9.0000E+01  9.0000E+01  0.0000E+00  5.5635E-02
 ------------------------------------------------------------------------------------------------------------------------
      370 -1.1816E+04  1.9372E+02 -1.5298E+04 -1.5298E+04  0.0000E+00  0.0000E+00  0.0000E+00  0.0000E+00  0.0000E+00
 740.000f -1.1247E+04  1.9336E+02 -7.4516E+02  1.4671E+04  0.0000E+00  0.0000E+00  0.0000E+00  0.0000E+00  0.0000E+00
   9.251s  1.0378E+05  0.0000E+00  0.0000E+00  0.0000E+00  9.0000E+01  9.0000E+01  9.0000E+01  0.0000E+00  2.1087E-01

  rolling -1.1815E+04  1.9880E+02 -1.5334E+04 -1.5334E+04  0.0000E+00  0.0000E+00  0.0000E+00  0.0000E+00  0.0000E+00
 averages -1.2244E+04  2.0100E+02  2.4086E+03  1.6388E+04  0.0000E+00  0.0000E+00  0.0000E+00  0.0000E+00  0.0000E+00
           1.0411E+05  0.0000E+00  0.0000E+00  0.0000E+00  9.0000E+01  9.0000E+01  9.0000E+01  0.0000E+00  4.7882E-02
 ------------------------------------------------------------------------------------------------------------------------
      380 -1.1816E+04  1.9371E+02 -1.5288E+04 -1.5288E+04  0.0000E+00  0.0000E+00  0.0000E+00  0.0000E+00  0.0000E+00
 760.000f -1.0920E+04  1.9185E+02 -1.6813E+03  1.4214E+04  0.0000E+00  0.0000E+00  0.0000E+00  0.0000E+00  0.0000E+00
   9.426s  1.0369E+05  0.0000E+00  0.0000E+00  0.0000E+00  9.0000E+01  9.0000E+01  9.0000E+01  0.0000E+00  2.6124E-01

  rolling -1.1815E+04  1.9844E+02 -1.5335E+04 -1.5335E+04  0.0000E+00  0.0000E+00  0.0000E+00  0.0000E+00  0.0000E+00
 averages -1.2231E+04  2.0071E+02  2.3422E+03  1.6398E+04  0.0000E+00  0.0000E+00  0.0000E+00  0.0000E+00  0.0000E+00
           1.0410E+05  0.0000E+00  0.0000E+00  0.0000E+00  9.0000E+01  9.0000E+01  9.0000E+01  0.0000E+00  5.1026E-02
 ------------------------------------------------------------------------------------------------------------------------
      390 -1.1815E+04  1.9325E+02 -1.5266E+04 -1.5266E+04  0.0000E+00  0.0000E+00  0.0000E+00  0.0000E+00  0.0000E+00
 780.000f -1.0677E+04  1.9123E+02 -2.3658E+03  1.3839E+04  0.0000E+00  0.0000E+00  0.0000E+00  0.0000E+00  0.0000E+00
   9.659s  1.0367E+05  0.0000E+00  0.0000E+00  0.0000E+00  9.0000E+01  9.0000E+01  9.0000E+01  0.0000E+00  2.9705E-01

  rolling -1.1815E+04  1.9789E+02 -1.5332E+04 -1.5332E+04  0.0000E+00  0.0000E+00  0.0000E+00  0.0000E+00  0.0000E+00
 averages -1.2134E+04  2.0012E+02  2.0302E+03  1.6262E+04  0.0000E+00  0.0000E+00  0.0000E+00  0.0000E+00  0.0000E+00
           1.0407E+05  0.0000E+00  0.0000E+00  0.0000E+00  9.0000E+01  9.0000E+01  9.0000E+01  0.0000E+00  6.7045E-02
 ------------------------------------------------------------------------------------------------------------------------
 ------------------------------------------------------------------------------------------------------------------------

     step     eng_tot    temp_tot     eng_cfg     eng_vdw     eng_cou     eng_bnd     eng_ang     eng_dih     eng_tet
 time          eng_pv    temp_rot     vir_cfg     vir_vdw     vir_cou     vir_bnd     vir_ang     vir_con     vir_tet
 cpu time      volume    temp_shl     eng_shl     vir_shl       alpha        beta       gamma     vir_pmf       press

 ------------------------------------------------------------------------------------------------------------------------
      400 -1.1815E+04  1.9349E+02 -1.5248E+04 -1.5248E+04  0.0000E+00  0.0000E+00  0.0000E+00  0.0000E+00  0.0000E+00
 800.000f -1.0676E+04  1.9187E+02 -2.3090E+03  1.3828E+04  0.0000E+00  0.0000E+00  0.0000E+00  0.0000E+00  0.0000E+00
   9.893s  1.0374E+05  0.0000E+00  0.0000E+00  0.0000E+00  9.0000E+01  9.0000E+01  9.0000E+01  0.0000E+00  2.9385E-01

  rolling -1.1815E+04  1.9705E+02 -1.5323E+04 -1.5323E+04  0.0000E+00  0.0000E+00  0.0000E+00  0.0000E+00  0.0000E+00
 averages -1.1962E+04  1.9897E+02  1.4965E+03  1.5977E+04  0.0000E+00  0.0000E+00  0.0000E+00  0.0000E+00  0.0000E+00
           1.0402E+05  0.0000E+00  0.0000E+00  0.0000E+00  9.0000E+01  9.0000E+01  9.0000E+01  0.0000E+00  9.4615E-02
 ------------------------------------------------------------------------------------------------------------------------
      410 -1.1815E+04  1.9588E+02 -1.5255E+04 -1.5255E+04  0.0000E+00  0.0000E+00  0.0000E+00  0.0000E+00  0.0000E+00
 820.000f -1.1009E+04  1.9428E+02 -1.1894E+03  1.4447E+04  0.0000E+00  0.0000E+00  0.0000E+00  0.0000E+00  0.0000E+00
  10.131s  1.0388E+05  0.0000E+00  0.0000E+00  0.0000E+00  9.0000E+01  9.0000E+01  9.0000E+01  0.0000E+00  2.3667E-01

  rolling -1.1815E+04  1.9618E+02 -1.5310E+04 -1.5310E+04  0.0000E+00  0.0000E+00  0.0000E+00  0.0000E+00  0.0000E+00
 averages -1.1761E+04  1.9756E+02  8.8566E+02  1.5626E+04  0.0000E+00  0.0000E+00  0.0000E+00  0.0000E+00  0.0000E+00
           1.0398E+05  0.0000E+00  0.0000E+00  0.0000E+00  9.0000E+01  9.0000E+01  9.0000E+01  0.0000E+00  1.2628E-01
 ------------------------------------------------------------------------------------------------------------------------
      420 -1.1814E+04  1.9938E+02 -1.5271E+04 -1.5271E+04  0.0000E+00  0.0000E+00  0.0000E+00  0.0000E+00  0.0000E+00
 840.000f -1.1475E+04  1.9714E+02  3.7222E+02  1.5444E+04  0.0000E+00  0.0000E+00  0.0000E+00  0.0000E+00  0.0000E+00
  10.312s  1.0408E+05  0.0000E+00  0.0000E+00  0.0000E+00  9.0000E+01  9.0000E+01  9.0000E+01  0.0000E+00  1.5771E-01

  rolling -1.1815E+04  1.9568E+02 -1.5298E+04 -1.5298E+04  0.0000E+00  0.0000E+00  0.0000E+00  0.0000E+00  0.0000E+00
 averages -1.1584E+04  1.9642E+02  3.6769E+02  1.5325E+04  0.0000E+00  0.0000E+00  0.0000E+00  0.0000E+00  0.0000E+00
           1.0394E+05  0.0000E+00  0.0000E+00  0.0000E+00  9.0000E+01  9.0000E+01  9.0000E+01  0.0000E+00  1.5339E-01
 ------------------------------------------------------------------------------------------------------------------------
      430 -1.1813E+04  2.0224E+02 -1.5277E+04 -1.5277E+04  0.0000E+00  0.0000E+00  0.0000E+00  0.0000E+00  0.0000E+00
 860.000f -1.1849E+04  1.9931E+02  1.6547E+03  1.6401E+04  0.0000E+00  0.0000E+00  0.0000E+00  0.0000E+00  0.0000E+00
  10.544s  1.0431E+05  0.0000E+00  0.0000E+00  0.0000E+00  9.0000E+01  9.0000E+01  9.0000E+01  0.0000E+00  9.3126E-02

  rolling -1.1815E+04  1.9567E+02 -1.5289E+04 -1.5289E+04  0.0000E+00  0.0000E+00  0.0000E+00  0.0000E+00  0.0000E+00
 averages -1.1456E+04  1.9571E+02  1.8077E+01  1.5141E+04  0.0000E+00  0.0000E+00  0.0000E+00  0.0000E+00  0.0000E+00
           1.0393E+05  0.0000E+00  0.0000E+00  0.0000E+00  9.0000E+01  9.0000E+01  9.0000E+01  0.0000E+00  1.7212E-01
 ------------------------------------------------------------------------------------------------------------------------
      440 -1.1813E+04  2.0391E+02 -1.5268E+04 -1.5268E+04  0.0000E+00  0.0000E+00  0.0000E+00  0.0000E+00  0.0000E+00
 880.000f -1.2083E+04  2.0090E+02  2.4809E+03  1.7138E+04  0.0000E+00  0.0000E+00  0.0000E+00  0.0000E+00  0.0000E+00
  10.777s  1.0454E+05  0.0000E+00  0.0000E+00  0.0000E+00  9.0000E+01  9.0000E+01  9.0000E+01  0.0000E+00  5.1265E-02

  rolling -1.1815E+04  1.9613E+02 -1.5282E+04 -1.5282E+04  0.0000E+00  0.0000E+00  0.0000E+00  0.0000E+00  0.0000E+00
 averages -1.1382E+04  1.9543E+02 -1.4525E+02  1.5100E+04  0.0000E+00  0.0000E+00  0.0000E+00  0.0000E+00  0.0000E+00
           1.0395E+05  0.0000E+00  0.0000E+00  0.0000E+00  9.0000E+01  9.0000E+01  9.0000E+01  0.0000E+00  1.8151E-01
 ------------------------------------------------------------------------------------------------------------------------
      450 -1.1813E+04  2.0425E+02 -1.5244E+04 -1.5244E+04  0.0000E+00  0.0000E+00  0.0000E+00  0.0000E+00  0.0000E+00
 900.000f -1.2214E+04  2.0162E+02  2.9617E+03  1.7571E+04  0.0000E+00  0.0000E+00  0.0000E+00  0.0000E+00  0.0000E+00
  10.951s  1.0475E+05  0.0000E+00  0.0000E+00  0.0000E+00  9.0000E+01  9.0000E+01  9.0000E+01  0.0000E+00  2.6160E-02

  rolling -1.1815E+04  1.9694E+02 -1.5275E+04 -1.5275E+04  0.0000E+00  0.0000E+00  0.0000E+00  0.0000E+00  0.0000E+00
 averages -1.1368E+04  1.9557E+02 -1.1226E+02  1.5199E+04  0.0000E+00  0.0000E+00  0.0000E+00  0.0000E+00  0.0000E+00
           1.0400E+05  0.0000E+00  0.0000E+00  0.0000E+00  9.0000E+01  9.0000E+01  9.0000E+01  0.0000E+00  1.8087E-01
 ------------------------------------------------------------------------------------------------------------------------
      460 -1.1812E+04  2.0354E+02 -1.5210E+04 -1.5210E+04  0.0000E+00  0.0000E+00  0.0000E+00  0.0000E+00  0.0000E+00
 920.000f -1.2302E+04  2.0138E+02  3.2800E+03  1.7727E+04  0.0000E+00  0.0000E+00  0.0000E+00  0.0000E+00  0.0000E+00
  11.189s  1.0493E+05  0.0000E+00  0.0000E+00  0.0000E+00  9.0000E+01  9.0000E+01  9.0000E+01  0.0000E+00  8.6522E-03

  rolling -1.1814E+04  1.9790E+02 -1.5267E+04 -1.5267E+04  0.0000E+00  0.0000E+00  0.0000E+00  0.0000E+00  0.0000E+00
 averages -1.1411E+04  1.9602E+02  1.0297E+02  1.5410E+04  0.0000E+00  0.0000E+00  0.0000E+00  0.0000E+00  0.0000E+00
           1.0409E+05  0.0000E+00  0.0000E+00  0.0000E+00  9.0000E+01  9.0000E+01  9.0000E+01  0.0000E+00  1.7070E-01
 ------------------------------------------------------------------------------------------------------------------------
      470 -1.1811E+04  2.0287E+02 -1.5180E+04 -1.5180E+04  0.0000E+00  0.0000E+00  0.0000E+00  0.0000E+00  0.0000E+00
 940.000f -1.2388E+04  2.0088E+02  3.5863E+03  1.7777E+04  0.0000E+00  0.0000E+00  0.0000E+00  0.0000E+00  0.0000E+00
  11.427s  1.0507E+05  0.0000E+00  0.0000E+00  0.0000E+00  9.0000E+01  9.0000E+01  9.0000E+01  0.0000E+00 -7.9667E-03

  rolling -1.1814E+04  1.9884E+02 -1.5256E+04 -1.5256E+04  0.0000E+00  0.0000E+00  0.0000E+00  0.0000E+00  0.0000E+00
 averages -1.1504E+04  1.9669E+02  4.7323E+02  1.5694E+04  0.0000E+00  0.0000E+00  0.0000E+00  0.0000E+00  0.0000E+00
           1.0421E+05  0.0000E+00  0.0000E+00  0.0000E+00  9.0000E+01  9.0000E+01  9.0000E+01  0.0000E+00  1.5221E-01
 ------------------------------------------------------------------------------------------------------------------------
 ------------------------------------------------------------------------------------------------------------------------

     step     eng_tot    temp_tot     eng_cfg     eng_vdw     eng_cou     eng_bnd     eng_ang     eng_dih     eng_tet
 time          eng_pv    temp_rot     vir_cfg     vir_vdw     vir_cou     vir_bnd     vir_ang     vir_con     vir_tet
 cpu time      volume    temp_shl     eng_shl     vir_shl       alpha        beta       gamma     vir_pmf       press

 ------------------------------------------------------------------------------------------------------------------------
      480 -1.1810E+04  2.0298E+02 -1.5165E+04 -1.5165E+04  0.0000E+00  0.0000E+00  0.0000E+00  0.0000E+00  0.0000E+00
 960.000f -1.2461E+04  2.0051E+02  3.8636E+03  1.7852E+04  0.0000E+00  0.0000E+00  0.0000E+00  0.0000E+00  0.0000E+00
  11.662s  1.0517E+05  0.0000E+00  0.0000E+00  0.0000E+00  9.0000E+01  9.0000E+01  9.0000E+01  0.0000E+00 -2.1990E-02

  rolling -1.1813E+04  1.9976E+02 -1.5244E+04 -1.5244E+04  0.0000E+00  0.0000E+00  0.0000E+00  0.0000E+00  0.0000E+00
 averages -1.1641E+04  1.9751E+02  9.7524E+02  1.6035E+04  0.0000E+00  0.0000E+00  0.0000E+00  0.0000E+00  0.0000E+00
           1.0435E+05  0.0000E+00  0.0000E+00  0.0000E+00  9.0000E+01  9.0000E+01  9.0000E+01  0.0000E+00  1.2665E-01
 ------------------------------------------------------------------------------------------------------------------------
      490 -1.1810E+04  2.0362E+02 -1.5162E+04 -1.5162E+04  0.0000E+00  0.0000E+00  0.0000E+00  0.0000E+00  0.0000E+00
 980.000f -1.2477E+04  2.0051E+02  3.9665E+03  1.7893E+04  0.0000E+00  0.0000E+00  0.0000E+00  0.0000E+00  0.0000E+00
  11.895s  1.0521E+05  0.0000E+00  0.0000E+00  0.0000E+00  9.0000E+01  9.0000E+01  9.0000E+01  0.0000E+00 -2.6386E-02

  rolling -1.1813E+04  2.0074E+02 -1.5233E+04 -1.5233E+04  0.0000E+00  0.0000E+00  0.0000E+00  0.0000E+00  0.0000E+00
 averages -1.1811E+04  1.9842E+02  1.5785E+03  1.6423E+04  0.0000E+00  0.0000E+00  0.0000E+00  0.0000E+00  0.0000E+00
           1.0450E+05  0.0000E+00  0.0000E+00  0.0000E+00  9.0000E+01  9.0000E+01  9.0000E+01  0.0000E+00  9.5823E-02
 ------------------------------------------------------------------------------------------------------------------------
      500 -1.1810E+04  2.0401E+02 -1.5158E+04 -1.5158E+04  0.0000E+00  0.0000E+00  0.0000E+00  0.0000E+00  0.0000E+00
   1.000p -1.2390E+04  2.0087E+02  3.7401E+03  1.7745E+04  0.0000E+00  0.0000E+00  0.0000E+00  0.0000E+00  0.0000E+00
  12.068s  1.0520E+05  0.0000E+00  0.0000E+00  0.0000E+00  9.0000E+01  9.0000E+01  9.0000E+01  0.0000E+00 -1.4285E-02

  rolling -1.1812E+04  2.0180E+02 -1.5223E+04 -1.5223E+04  0.0000E+00  0.0000E+00  0.0000E+00  0.0000E+00  0.0000E+00
 averages -1.1990E+04  1.9934E+02  2.2077E+03  1.6828E+04  0.0000E+00  0.0000E+00  0.0000E+00  0.0000E+00  0.0000E+00
           1.0465E+05  0.0000E+00  0.0000E+00  0.0000E+00  9.0000E+01  9.0000E+01  9.0000E+01  0.0000E+00  6.3735E-02
 ------------------------------------------------------------------------------------------------------------------------
      510 -1.1809E+04  2.0378E+02 -1.5150E+04 -1.5150E+04  0.0000E+00  0.0000E+00  0.0000E+00  0.0000E+00  0.0000E+00
   1.020p -1.2215E+04  2.0116E+02  3.2224E+03  1.7352E+04  0.0000E+00  0.0000E+00  0.0000E+00  0.0000E+00  0.0000E+00
  12.312s  1.0514E+05  0.0000E+00  0.0000E+00  0.0000E+00  9.0000E+01  9.0000E+01  9.0000E+01  0.0000E+00  1.2111E-02

  rolling -1.1812E+04  2.0274E+02 -1.5214E+04 -1.5214E+04  0.0000E+00  0.0000E+00  0.0000E+00  0.0000E+00  0.0000E+00
 averages -1.2136E+04  2.0014E+02  2.7318E+03  1.7171E+04  0.0000E+00  0.0000E+00  0.0000E+00  0.0000E+00  0.0000E+00
           1.0479E+05  0.0000E+00  0.0000E+00  0.0000E+00  9.0000E+01  9.0000E+01  9.0000E+01  0.0000E+00  3.7056E-02
 ------------------------------------------------------------------------------------------------------------------------
      520 -1.1808E+04  2.0285E+02 -1.5136E+04 -1.5136E+04  0.0000E+00  0.0000E+00  0.0000E+00  0.0000E+00  0.0000E+00
   1.040p -1.1994E+04  2.0080E+02  2.5380E+03  1.6736E+04  0.0000E+00  0.0000E+00  0.0000E+00  0.0000E+00  0.0000E+00
  12.544s  1.0504E+05  0.0000E+00  0.0000E+00  0.0000E+00  9.0000E+01  9.0000E+01  9.0000E+01  0.0000E+00  4.6561E-02

  rolling -1.1811E+04  2.0329E+02 -1.5201E+04 -1.5201E+04  0.0000E+00  0.0000E+00  0.0000E+00  0.0000E+00  0.0000E+00
 averages -1.2219E+04  2.0065E+02  3.0504E+03  1.7376E+04  0.0000E+00  0.0000E+00  0.0000E+00  0.0000E+00  0.0000E+00
           1.0490E+05  0.0000E+00  0.0000E+00  0.0000E+00  9.0000E+01  9.0000E+01  9.0000E+01  0.0000E+00  2.0797E-02
 ------------------------------------------------------------------------------------------------------------------------
      530 -1.1808E+04  2.0175E+02 -1.5123E+04 -1.5123E+04  0.0000E+00  0.0000E+00  0.0000E+00  0.0000E+00  0.0000E+00
   1.060p -1.1778E+04  2.0031E+02  1.8570E+03  1.6051E+04  0.0000E+00  0.0000E+00  0.0000E+00  0.0000E+00  0.0000E+00
  12.776s  1.0492E+05  0.0000E+00  0.0000E+00  0.0000E+00  9.0000E+01  9.0000E+01  9.0000E+01  0.0000E+00  8.0749E-02

  rolling -1.1811E+04  2.0340E+02 -1.5187E+04 -1.5187E+04  0.0000E+00  0.0000E+00  0.0000E+00  0.0000E+00  0.0000E+00
 averages -1.2237E+04  2.0086E+02  3.1545E+03  1.7413E+04  0.0000E+00  0.0000E+00  0.0000E+00  0.0000E+00  0.0000E+00
           1.0497E+05  0.0000E+00  0.0000E+00  0.0000E+00  9.0000E+01  9.0000E+01  9.0000E+01  0.0000E+00  1.5341E-02
 ------------------------------------------------------------------------------------------------------------------------
      540 -1.1809E+04  2.0142E+02 -1.5124E+04 -1.5124E+04  0.0000E+00  0.0000E+00  0.0000E+00  0.0000E+00  0.0000E+00
   1.080p -1.1609E+04  2.0039E+02  1.3243E+03  1.5535E+04  0.0000E+00  0.0000E+00  0.0000E+00  0.0000E+00  0.0000E+00
  12.950s  1.0479E+05  0.0000E+00  0.0000E+00  0.0000E+00  9.0000E+01  9.0000E+01  9.0000E+01  0.0000E+00  1.0810E-01

  rolling -1.1810E+04  2.0322E+02 -1.5172E+04 -1.5172E+04  0.0000E+00  0.0000E+00  0.0000E+00  0.0000E+00  0.0000E+00
 averages -1.2207E+04  2.0087E+02  3.0950E+03  1.7304E+04  0.0000E+00  0.0000E+00  0.0000E+00  0.0000E+00  0.0000E+00
           1.0501E+05  0.0000E+00  0.0000E+00  0.0000E+00  9.0000E+01  9.0000E+01  9.0000E+01  0.0000E+00  1.8149E-02
 ------------------------------------------------------------------------------------------------------------------------
      550 -1.1808E+04  2.0255E+02 -1.5145E+04 -1.5145E+04  0.0000E+00  0.0000E+00  0.0000E+00  0.0000E+00  0.0000E+00
   1.100p -1.1525E+04  2.0174E+02  1.0701E+03  1.5350E+04  0.0000E+00  0.0000E+00  0.0000E+00  0.0000E+00  0.0000E+00
  13.188s  1.0466E+05  0.0000E+00  0.0000E+00  0.0000E+00  9.0000E+01  9.0000E+01  9.0000E+01  0.0000E+00  1.2236E-01

  rolling -1.1810E+04  2.0300E+02 -1.5159E+04 -1.5159E+04  0.0000E+00  0.0000E+00  0.0000E+00  0.0000E+00  0.0000E+00
 averages -1.2146E+04  2.0083E+02  2.9340E+03  1.7104E+04  0.0000E+00  0.0000E+00  0.0000E+00  0.0000E+00  0.0000E+00
           1.0502E+05  0.0000E+00  0.0000E+00  0.0000E+00  9.0000E+01  9.0000E+01  9.0000E+01  0.0000E+00  2.6233E-02
 ------------------------------------------------------------------------------------------------------------------------
 ------------------------------------------------------------------------------------------------------------------------

     step     eng_tot    temp_tot     eng_cfg     eng_vdw     eng_cou     eng_bnd     eng_ang     eng_dih     eng_tet
 time          eng_pv    temp_rot     vir_cfg     vir_vdw     vir_cou     vir_bnd     vir_ang     vir_con     vir_tet
 cpu time      volume    temp_shl     eng_shl     vir_shl       alpha        beta       gamma     vir_pmf       press

 ------------------------------------------------------------------------------------------------------------------------
      560 -1.1808E+04  2.0385E+02 -1.5173E+04 -1.5173E+04  0.0000E+00  0.0000E+00  0.0000E+00  0.0000E+00  0.0000E+00
   1.120p -1.1459E+04  2.0346E+02  8.6175E+02  1.5287E+04  0.0000E+00  0.0000E+00  0.0000E+00  0.0000E+00  0.0000E+00
  13.427s  1.0455E+05  0.0000E+00  0.0000E+00  0.0000E+00  9.0000E+01  9.0000E+01  9.0000E+01  0.0000E+00  1.3427E-01

  rolling -1.1809E+04  2.0294E+02 -1.5153E+04 -1.5153E+04  0.0000E+00  0.0000E+00  0.0000E+00  0.0000E+00  0.0000E+00
 averages -1.2069E+04  2.0096E+02  2.7179E+03  1.6870E+04  0.0000E+00  0.0000E+00  0.0000E+00  0.0000E+00  0.0000E+00
           1.0499E+05  0.0000E+00  0.0000E+00  0.0000E+00  9.0000E+01  9.0000E+01  9.0000E+01  0.0000E+00  3.7373E-02
 ------------------------------------------------------------------------------------------------------------------------
      570 -1.1808E+04  2.0263E+02 -1.5169E+04 -1.5169E+04  0.0000E+00  0.0000E+00  0.0000E+00  0.0000E+00  0.0000E+00
   1.140p -1.1213E+04  2.0234E+02  6.4283E+01  1.4871E+04  0.0000E+00  0.0000E+00  0.0000E+00  0.0000E+00  0.0000E+00
  13.601s  1.0445E+05  0.0000E+00  0.0000E+00  0.0000E+00  9.0000E+01  9.0000E+01  9.0000E+01  0.0000E+00  1.7498E-01

  rolling -1.1809E+04  2.0298E+02 -1.5151E+04 -1.5151E+04  0.0000E+00  0.0000E+00  0.0000E+00  0.0000E+00  0.0000E+00
 averages -1.1969E+04  2.0116E+02  2.4217E+03  1.6604E+04  0.0000E+00  0.0000E+00  0.0000E+00  0.0000E+00  0.0000E+00
           1.0494E+05  0.0000E+00  0.0000E+00  0.0000E+00  9.0000E+01  9.0000E+01  9.0000E+01  0.0000E+00  5.2780E-02
 ------------------------------------------------------------------------------------------------------------------------
      580 -1.1808E+04  1.9916E+02 -1.5136E+04 -1.5136E+04  0.0000E+00  0.0000E+00  0.0000E+00  0.0000E+00  0.0000E+00
   1.160p -1.0829E+04  1.9790E+02 -1.1857E+03  1.4200E+04  0.0000E+00  0.0000E+00  0.0000E+00  0.0000E+00  0.0000E+00
  13.833s  1.0438E+05  0.0000E+00  0.0000E+00  0.0000E+00  9.0000E+01  9.0000E+01  9.0000E+01  0.0000E+00  2.3802E-01

  rolling -1.1809E+04  2.0277E+02 -1.5149E+04 -1.5149E+04  0.0000E+00  0.0000E+00  0.0000E+00  0.0000E+00  0.0000E+00
 averages -1.1826E+04  2.0110E+02  1.9844E+03  1.6272E+04  0.0000E+00  0.0000E+00  0.0000E+00  0.0000E+00  0.0000E+00
           1.0487E+05  0.0000E+00  0.0000E+00  0.0000E+00  9.0000E+01  9.0000E+01  9.0000E+01  0.0000E+00  7.5381E-02
 ------------------------------------------------------------------------------------------------------------------------
      590 -1.1808E+04  1.9720E+02 -1.5124E+04 -1.5124E+04  0.0000E+00  0.0000E+00  0.0000E+00  0.0000E+00  0.0000E+00
   1.180p -1.0652E+04  1.9424E+02 -1.7743E+03  1.4040E+04  0.0000E+00  0.0000E+00  0.0000E+00  0.0000E+00  0.0000E+00
  14.066s  1.0437E+05  0.0000E+00  0.0000E+00  0.0000E+00  9.0000E+01  9.0000E+01  9.0000E+01  0.0000E+00  2.6813E-01

  rolling -1.1808E+04  2.0222E+02 -1.5145E+04 -1.5145E+04  0.0000E+00  0.0000E+00  0.0000E+00  0.0000E+00  0.0000E+00
 averages -1.1648E+04  2.0062E+02  1.4295E+03  1.5887E+04  0.0000E+00  0.0000E+00  0.0000E+00  0.0000E+00  0.0000E+00
           1.0479E+05  0.0000E+00  0.0000E+00  0.0000E+00  9.0000E+01  9.0000E+01  9.0000E+01  0.0000E+00  1.0388E-01
 ------------------------------------------------------------------------------------------------------------------------
      600 -1.1808E+04  1.9770E+02 -1.5145E+04 -1.5145E+04  0.0000E+00  0.0000E+00  0.0000E+00  0.0000E+00  0.0000E+00
   1.200p -1.0796E+04  1.9278E+02 -1.3530E+03  1.4605E+04  0.0000E+00  0.0000E+00  0.0000E+00  0.0000E+00  0.0000E+00
  14.309s  1.0443E+05  0.0000E+00  0.0000E+00  0.0000E+00  9.0000E+01  9.0000E+01  9.0000E+01  0.0000E+00  2.4752E-01

  rolling -1.1808E+04  2.0157E+02 -1.5143E+04 -1.5143E+04  0.0000E+00  0.0000E+00  0.0000E+00  0.0000E+00  0.0000E+00
 averages -1.1475E+04  1.9989E+02  8.8236E+02  1.5535E+04  0.0000E+00  0.0000E+00  0.0000E+00  0.0000E+00  0.0000E+00
           1.0471E+05  0.0000E+00  0.0000E+00  0.0000E+00  9.0000E+01  9.0000E+01  9.0000E+01  0.0000E+00  1.3197E-01
 ------------------------------------------------------------------------------------------------------------------------
      610 -1.1808E+04  1.9854E+02 -1.5169E+04 -1.5169E+04  0.0000E+00  0.0000E+00  0.0000E+00  0.0000E+00  0.0000E+00
   1.220p -1.1113E+04  1.9186E+02 -4.0521E+02  1.5454E+04  0.0000E+00  0.0000E+00  0.0000E+00  0.0000E+00  0.0000E+00
  14.486s  1.0456E+05  0.0000E+00  0.0000E+00  0.0000E+00  9.0000E+01  9.0000E+01  9.0000E+01  0.0000E+00  1.9948E-01

  rolling -1.1808E+04  2.0099E+02 -1.5143E+04 -1.5143E+04  0.0000E+00  0.0000E+00  0.0000E+00  0.0000E+00  0.0000E+00
 averages -1.1341E+04  1.9900E+02  4.4832E+02  1.5286E+04  0.0000E+00  0.0000E+00  0.0000E+00  0.0000E+00  0.0000E+00
           1.0464E+05  0.0000E+00  0.0000E+00  0.0000E+00  9.0000E+01  9.0000E+01  9.0000E+01  0.0000E+00  1.5433E-01
 ------------------------------------------------------------------------------------------------------------------------
      620 -1.1807E+04  1.9915E+02 -1.5187E+04 -1.5187E+04  0.0000E+00  0.0000E+00  0.0000E+00  0.0000E+00  0.0000E+00
   1.240p -1.1537E+04  1.9166E+02  8.5823E+02  1.6383E+04  0.0000E+00  0.0000E+00  0.0000E+00  0.0000E+00  0.0000E+00
  14.718s  1.0472E+05  0.0000E+00  0.0000E+00  0.0000E+00  9.0000E+01  9.0000E+01  9.0000E+01  0.0000E+00  1.3428E-01

  rolling -1.1808E+04  2.0055E+02 -1.5147E+04 -1.5147E+04  0.0000E+00  0.0000E+00  0.0000E+00  0.0000E+00  0.0000E+00
 averages -1.1266E+04  1.9807E+02  1.9043E+02  1.5180E+04  0.0000E+00  0.0000E+00  0.0000E+00  0.0000E+00  0.0000E+00
           1.0459E+05  0.0000E+00  0.0000E+00  0.0000E+00  9.0000E+01  9.0000E+01  9.0000E+01  0.0000E+00  1.6771E-01
 ------------------------------------------------------------------------------------------------------------------------
      630 -1.1808E+04  1.9895E+02 -1.5194E+04 -1.5194E+04  0.0000E+00  0.0000E+00  0.0000E+00  0.0000E+00  0.0000E+00
   1.260p -1.1954E+04  1.9129E+02  2.0780E+03  1.7192E+04  0.0000E+00  0.0000E+00  0.0000E+00  0.0000E+00  0.0000E+00
  14.950s  1.0490E+05  0.0000E+00  0.0000E+00  0.0000E+00  9.0000E+01  9.0000E+01  9.0000E+01  0.0000E+00  7.0437E-02

  rolling -1.1808E+04  2.0024E+02 -1.5153E+04 -1.5153E+04  0.0000E+00  0.0000E+00  0.0000E+00  0.0000E+00  0.0000E+00
 averages -1.1256E+04  1.9718E+02  1.2955E+02  1.5229E+04  0.0000E+00  0.0000E+00  0.0000E+00  0.0000E+00  0.0000E+00
           1.0458E+05  0.0000E+00  0.0000E+00  0.0000E+00  9.0000E+01  9.0000E+01  9.0000E+01  0.0000E+00  1.7097E-01
 ------------------------------------------------------------------------------------------------------------------------
 ------------------------------------------------------------------------------------------------------------------------

     step     eng_tot    temp_tot     eng_cfg     eng_vdw     eng_cou     eng_bnd     eng_ang     eng_dih     eng_tet
 time          eng_pv    temp_rot     vir_cfg     vir_vdw     vir_cou     vir_bnd     vir_ang     vir_con     vir_tet
 cpu time      volume    temp_shl     eng_shl     vir_shl       alpha        beta       gamma     vir_pmf       press

 ------------------------------------------------------------------------------------------------------------------------
      640 -1.1807E+04  1.9833E+02 -1.5192E+04 -1.5192E+04  0.0000E+00  0.0000E+00  0.0000E+00  0.0000E+00  0.0000E+00
   1.280p -1.2332E+04  1.9075E+02  3.1807E+03  1.7851E+04  0.0000E+00  0.0000E+00  0.0000E+00  0.0000E+00  0.0000E+00
  15.188s  1.0507E+05  0.0000E+00  0.0000E+00  0.0000E+00  9.0000E+01  9.0000E+01  9.0000E+01  0.0000E+00  1.2404E-02

  rolling -1.1808E+04  1.9995E+02 -1.5160E+04 -1.5160E+04  0.0000E+00  0.0000E+00  0.0000E+00  0.0000E+00  0.0000E+00
 averages -1.1304E+04  1.9624E+02  2.4237E+02  1.5410E+04  0.0000E+00  0.0000E+00  0.0000E+00  0.0000E+00  0.0000E+00
           1.0459E+05  0.0000E+00  0.0000E+00  0.0000E+00  9.0000E+01  9.0000E+01  9.0000E+01  0.0000E+00  1.6521E-01
 ------------------------------------------------------------------------------------------------------------------------
      650 -1.1808E+04  1.9904E+02 -1.5207E+04 -1.5207E+04  0.0000E+00  0.0000E+00  0.0000E+00  0.0000E+00  0.0000E+00
   1.300p -1.2783E+04  1.9181E+02  4.5260E+03  1.8604E+04  0.0000E+00  0.0000E+00  0.0000E+00  0.0000E+00  0.0000E+00
  15.368s  1.0520E+05  0.0000E+00  0.0000E+00  0.0000E+00  9.0000E+01  9.0000E+01  9.0000E+01  0.0000E+00 -5.7048E-02

  rolling -1.1808E+04  1.9961E+02 -1.5167E+04 -1.5167E+04  0.0000E+00  0.0000E+00  0.0000E+00  0.0000E+00  0.0000E+00
 averages -1.1406E+04  1.9526E+02  5.1632E+02  1.5695E+04  0.0000E+00  0.0000E+00  0.0000E+00  0.0000E+00  0.0000E+00
           1.0464E+05  0.0000E+00  0.0000E+00  0.0000E+00  9.0000E+01  9.0000E+01  9.0000E+01  0.0000E+00  1.5101E-01
 ------------------------------------------------------------------------------------------------------------------------
      660 -1.1808E+04  2.0102E+02 -1.5239E+04 -1.5239E+04  0.0000E+00  0.0000E+00  0.0000E+00  0.0000E+00  0.0000E+00
   1.320p -1.3212E+04  1.9433E+02  5.8297E+03  1.9340E+04  0.0000E+00  0.0000E+00  0.0000E+00  0.0000E+00  0.0000E+00
  15.601s  1.0526E+05  0.0000E+00  0.0000E+00  0.0000E+00  9.0000E+01  9.0000E+01  9.0000E+01  0.0000E+00 -1.2327E-01

  rolling -1.1808E+04  1.9928E+02 -1.5173E+04 -1.5173E+04  0.0000E+00  0.0000E+00  0.0000E+00  0.0000E+00  0.0000E+00
 averages -1.1559E+04  1.9429E+02  9.4615E+02  1.6065E+04  0.0000E+00  0.0000E+00  0.0000E+00  0.0000E+00  0.0000E+00
           1.0470E+05  0.0000E+00  0.0000E+00  0.0000E+00  9.0000E+01  9.0000E+01  9.0000E+01  0.0000E+00  1.2870E-01
 ------------------------------------------------------------------------------------------------------------------------
      670 -1.1807E+04  2.0236E+02 -1.5262E+04 -1.5262E+04  0.0000E+00  0.0000E+00  0.0000E+00  0.0000E+00  0.0000E+00
   1.340p -1.3365E+04  1.9619E+02  6.2891E+03  1.9615E+04  0.0000E+00  0.0000E+00  0.0000E+00  0.0000E+00  0.0000E+00
  15.833s  1.0522E+05  0.0000E+00  0.0000E+00  0.0000E+00  9.0000E+01  9.0000E+01  9.0000E+01  0.0000E+00 -1.4629E-01

  rolling -1.1808E+04  1.9913E+02 -1.5181E+04 -1.5181E+04  0.0000E+00  0.0000E+00  0.0000E+00  0.0000E+00  0.0000E+00
 averages -1.1758E+04  1.9353E+02  1.5158E+03  1.6510E+04  0.0000E+00  0.0000E+00  0.0000E+00  0.0000E+00  0.0000E+00
           1.0477E+05  0.0000E+00  0.0000E+00  0.0000E+00  9.0000E+01  9.0000E+01  9.0000E+01  0.0000E+00  9.9247E-02
 ------------------------------------------------------------------------------------------------------------------------
      680 -1.1806E+04  2.0141E+02 -1.5257E+04 -1.5257E+04  0.0000E+00  0.0000E+00  0.0000E+00  0.0000E+00  0.0000E+00
   1.360p -1.3081E+04  1.9544E+02  5.3974E+03  1.9082E+04  0.0000E+00  0.0000E+00  0.0000E+00  0.0000E+00  0.0000E+00
  16.066s  1.0508E+05  0.0000E+00  0.0000E+00  0.0000E+00  9.0000E+01  9.0000E+01  9.0000E+01  0.0000E+00 -1.0107E-01

  rolling -1.1808E+04  1.9926E+02 -1.5192E+04 -1.5192E+04  0.0000E+00  0.0000E+00  0.0000E+00  0.0000E+00  0.0000E+00
 averages -1.1982E+04  1.9312E+02  2.1696E+03  1.7000E+04  0.0000E+00  0.0000E+00  0.0000E+00  0.0000E+00  0.0000E+00
           1.0485E+05  0.0000E+00  0.0000E+00  0.0000E+00  9.0000E+01  9.0000E+01  9.0000E+01  0.0000E+00  6.5555E-02
 ------------------------------------------------------------------------------------------------------------------------
      690 -1.1807E+04  1.9857E+02 -1.5227E+04 -1.5227E+04  0.0000E+00  0.0000E+00  0.0000E+00  0.0000E+00  0.0000E+00
   1.380p -1.2461E+04  1.9280E+02  3.4536E+03  1.7860E+04  0.0000E+00  0.0000E+00  0.0000E+00  0.0000E+00  0.0000E+00
  16.252s  1.0486E+05  0.0000E+00  0.0000E+00  0.0000E+00  9.0000E+01  9.0000E+01  9.0000E+01  0.0000E+00 -2.6295E-03

  rolling -1.1807E+04  1.9947E+02 -1.5204E+04 -1.5204E+04  0.0000E+00  0.0000E+00  0.0000E+00  0.0000E+00  0.0000E+00
 averages -1.2188E+04  1.9296E+02  2.7686E+03  1.7441E+04  0.0000E+00  0.0000E+00  0.0000E+00  0.0000E+00  0.0000E+00
           1.0491E+05  0.0000E+00  0.0000E+00  0.0000E+00  9.0000E+01  9.0000E+01  9.0000E+01  0.0000E+00  3.4636E-02
 ------------------------------------------------------------------------------------------------------------------------
      700 -1.1808E+04  1.9591E+02 -1.5198E+04 -1.5198E+04  0.0000E+00  0.0000E+00  0.0000E+00  0.0000E+00  0.0000E+00
   1.400p -1.1778E+04  1.9135E+02  1.3249E+03  1.6428E+04  0.0000E+00  0.0000E+00  0.0000E+00  0.0000E+00  0.0000E+00
  16.485s  1.0459E+05  0.0000E+00  0.0000E+00  0.0000E+00  9.0000E+01  9.0000E+01  9.0000E+01  0.0000E+00  1.0549E-01

  rolling -1.1807E+04  1.9943E+02 -1.5211E+04 -1.5211E+04  0.0000E+00  0.0000E+00  0.0000E+00  0.0000E+00  0.0000E+00
 averages -1.2325E+04  1.9280E+02  3.1548E+03  1.7717E+04  0.0000E+00  0.0000E+00  0.0000E+00  0.0000E+00  0.0000E+00
           1.0494E+05  0.0000E+00  0.0000E+00  0.0000E+00  9.0000E+01  9.0000E+01  9.0000E+01  0.0000E+00  1.4455E-02
 ------------------------------------------------------------------------------------------------------------------------
      710 -1.1809E+04  1.9507E+02 -1.5189E+04 -1.5189E+04  0.0000E+00  0.0000E+00  0.0000E+00  0.0000E+00  0.0000E+00
   1.420p -1.1274E+04  1.9306E+02 -2.3772E+02  1.5246E+04  0.0000E+00  0.0000E+00  0.0000E+00  0.0000E+00  0.0000E+00
  16.718s  1.0433E+05  0.0000E+00  0.0000E+00  0.0000E+00  9.0000E+01  9.0000E+01  9.0000E+01  0.0000E+00  1.8535E-01

  rolling -1.1807E+04  1.9914E+02 -1.5214E+04 -1.5214E+04  0.0000E+00  0.0000E+00  0.0000E+00  0.0000E+00  0.0000E+00
 averages -1.2377E+04  1.9278E+02  3.2814E+03  1.7785E+04  0.0000E+00  0.0000E+00  0.0000E+00  0.0000E+00  0.0000E+00
           1.0494E+05  0.0000E+00  0.0000E+00  0.0000E+00  9.0000E+01  9.0000E+01  9.0000E+01  0.0000E+00  7.4288E-03
 ------------------------------------------------------------------------------------------------------------------------
 ------------------------------------------------------------------------------------------------------------------------

     step     eng_tot    temp_tot     eng_cfg     eng_vdw     eng_cou     eng_bnd     eng_ang     eng_dih     eng_tet
 time          eng_pv    temp_rot     vir_cfg     vir_vdw     vir_cou     vir_bnd     vir_ang     vir_con     vir_tet
 cpu time      volume    temp_shl     eng_shl     vir_shl       alpha        beta       gamma     vir_pmf       press

 ------------------------------------------------------------------------------------------------------------------------
      720 -1.1809E+04  1.9627E+02 -1.5201E+04 -1.5201E+04  0.0000E+00  0.0000E+00  0.0000E+00  0.0000E+00  0.0000E+00
   1.440p -1.0993E+04  1.9740E+02 -1.0831E+03  1.4494E+04  0.0000E+00  0.0000E+00  0.0000E+00  0.0000E+00  0.0000E+00
  16.893s  1.0410E+05  0.0000E+00  0.0000E+00  0.0000E+00  9.0000E+01  9.0000E+01  9.0000E+01  0.0000E+00  2.2932E-01

  rolling -1.1808E+04  1.9881E+02 -1.5216E+04 -1.5216E+04  0.0000E+00  0.0000E+00  0.0000E+00  0.0000E+00  0.0000E+00
 averages -1.2353E+04  1.9314E+02  3.1784E+03  1.7668E+04  0.0000E+00  0.0000E+00  0.0000E+00  0.0000E+00  0.0000E+00
           1.0489E+05  0.0000E+00  0.0000E+00  0.0000E+00  9.0000E+01  9.0000E+01  9.0000E+01  0.0000E+00  1.2198E-02
 ------------------------------------------------------------------------------------------------------------------------
      730 -1.1810E+04  1.9830E+02 -1.5223E+04 -1.5223E+04  0.0000E+00  0.0000E+00  0.0000E+00  0.0000E+00  0.0000E+00
   1.460p -1.0841E+04  2.0212E+02 -1.5163E+03  1.4073E+04  0.0000E+00  0.0000E+00  0.0000E+00  0.0000E+00  0.0000E+00
  17.132s  1.0393E+05  0.0000E+00  0.0000E+00  0.0000E+00  9.0000E+01  9.0000E+01  9.0000E+01  0.0000E+00  2.5267E-01

  rolling -1.1808E+04  1.9864E+02 -1.5218E+04 -1.5218E+04  0.0000E+00  0.0000E+00  0.0000E+00  0.0000E+00  0.0000E+00
 averages -1.2266E+04  1.9400E+02  2.8897E+03  1.7408E+04  0.0000E+00  0.0000E+00  0.0000E+00  0.0000E+00  0.0000E+00
           1.0481E+05  0.0000E+00  0.0000E+00  0.0000E+00  9.0000E+01  9.0000E+01  9.0000E+01  0.0000E+00  2.6679E-02
 ------------------------------------------------------------------------------------------------------------------------
      740 -1.1810E+04  1.9990E+02 -1.5237E+04 -1.5237E+04  0.0000E+00  0.0000E+00  0.0000E+00  0.0000E+00  0.0000E+00
   1.480p -1.0732E+04  2.0548E+02 -1.8080E+03  1.3820E+04  0.0000E+00  0.0000E+00  0.0000E+00  0.0000E+00  0.0000E+00
  17.370s  1.0382E+05  0.0000E+00  0.0000E+00  0.0000E+00  9.0000E+01  9.0000E+01  9.0000E+01  0.0000E+00  2.6867E-01

  rolling -1.1808E+04  1.9870E+02 -1.5222E+04 -1.5222E+04  0.0000E+00  0.0000E+00  0.0000E+00  0.0000E+00  0.0000E+00
 averages -1.2128E+04  1.9532E+02  2.4529E+03  1.7044E+04  0.0000E+00  0.0000E+00  0.0000E+00  0.0000E+00  0.0000E+00
           1.0470E+05  0.0000E+00  0.0000E+00  0.0000E+00  9.0000E+01  9.0000E+01  9.0000E+01  0.0000E+00  4.9012E-02
 ------------------------------------------------------------------------------------------------------------------------
      750 -1.1811E+04  2.0120E+02 -1.5248E+04 -1.5248E+04  0.0000E+00  0.0000E+00  0.0000E+00  0.0000E+00  0.0000E+00
   1.500p -1.0695E+04  2.0746E+02 -1.8836E+03  1.3834E+04  0.0000E+00  0.0000E+00  0.0000E+00  0.0000E+00  0.0000E+00
  17.603s  1.0378E+05  0.0000E+00  0.0000E+00  0.0000E+00  9.0000E+01  9.0000E+01  9.0000E+01  0.0000E+00  2.7350E-01

  rolling -1.1808E+04  1.9891E+02 -1.5226E+04 -1.5226E+04  0.0000E+00  0.0000E+00  0.0000E+00  0.0000E+00  0.0000E+00
 averages -1.1941E+04  1.9687E+02  1.8758E+03  1.6598E+04  0.0000E+00  0.0000E+00  0.0000E+00  0.0000E+00  0.0000E+00
           1.0456E+05  0.0000E+00  0.0000E+00  0.0000E+00  9.0000E+01  9.0000E+01  9.0000E+01  0.0000E+00  7.8740E-02
 ------------------------------------------------------------------------------------------------------------------------
      760 -1.1811E+04  2.0274E+02 -1.5264E+04 -1.5264E+04  0.0000E+00  0.0000E+00  0.0000E+00  0.0000E+00  0.0000E+00
   1.520p -1.0776E+04  2.0833E+02 -1.5925E+03  1.4236E+04  0.0000E+00  0.0000E+00  0.0000E+00  0.0000E+00  0.0000E+00
  17.836s  1.0382E+05  0.0000E+00  0.0000E+00  0.0000E+00  9.0000E+01  9.0000E+01  9.0000E+01  0.0000E+00  2.5984E-01

  rolling -1.1809E+04  1.9910E+02 -1.5229E+04 -1.5229E+04  0.0000E+00  0.0000E+00  0.0000E+00  0.0000E+00  0.0000E+00
 averages -1.1710E+04  1.9835E+02  1.1715E+03  1.6098E+04  0.0000E+00  0.0000E+00  0.0000E+00  0.0000E+00  0.0000E+00
           1.0442E+05  0.0000E+00  0.0000E+00  0.0000E+00  9.0000E+01  9.0000E+01  9.0000E+01  0.0000E+00  1.1508E-01
 ------------------------------------------------------------------------------------------------------------------------
      770 -1.1811E+04  2.0461E+02 -1.5288E+04 -1.5288E+04  0.0000E+00  0.0000E+00  0.0000E+00  0.0000E+00  0.0000E+00
   1.540p -1.1046E+04  2.0828E+02 -7.2439E+02  1.5020E+04  0.0000E+00  0.0000E+00  0.0000E+00  0.0000E+00  0.0000E+00
  18.011s  1.0392E+05  0.0000E+00  0.0000E+00  0.0000E+00  9.0000E+01  9.0000E+01  9.0000E+01  0.0000E+00  2.1675E-01

  rolling -1.1809E+04  1.9928E+02 -1.5232E+04 -1.5232E+04  0.0000E+00  0.0000E+00  0.0000E+00  0.0000E+00  0.0000E+00
 averages -1.1468E+04  1.9964E+02  4.3675E+02  1.5607E+04  0.0000E+00  0.0000E+00  0.0000E+00  0.0000E+00  0.0000E+00
           1.0428E+05  0.0000E+00  0.0000E+00  0.0000E+00  9.0000E+01  9.0000E+01  9.0000E+01  0.0000E+00  1.5305E-01
 ------------------------------------------------------------------------------------------------------------------------
      780 -1.1811E+04  2.0581E+02 -1.5309E+04 -1.5309E+04  0.0000E+00  0.0000E+00  0.0000E+00  0.0000E+00  0.0000E+00
   1.560p -1.1448E+04  2.0661E+02  5.2274E+02  1.5909E+04  0.0000E+00  0.0000E+00  0.0000E+00  0.0000E+00  0.0000E+00
  18.249s  1.0407E+05  0.0000E+00  0.0000E+00  0.0000E+00  9.0000E+01  9.0000E+01  9.0000E+01  0.0000E+00  1.5371E-01

  rolling -1.1809E+04  1.9962E+02 -1.5235E+04 -1.5235E+04  0.0000E+00  0.0000E+00  0.0000E+00  0.0000E+00  0.0000E+00
 averages -1.1270E+04  2.0079E+02 -1.5913E+02  1.5219E+04  0.0000E+00  0.0000E+00  0.0000E+00  0.0000E+00  0.0000E+00
           1.0416E+05  0.0000E+00  0.0000E+00  0.0000E+00  9.0000E+01  9.0000E+01  9.0000E+01  0.0000E+00  1.8402E-01
 ------------------------------------------------------------------------------------------------------------------------
      790 -1.1810E+04  2.0518E+02 -1.5310E+04 -1.5310E+04  0.0000E+00  0.0000E+00  0.0000E+00  0.0000E+00  0.0000E+00
   1.580p -1.1803E+04  2.0337E+02  1.5786E+03  1.6581E+04  0.0000E+00  0.0000E+00  0.0000E+00  0.0000E+00  0.0000E+00
  18.488s  1.0424E+05  0.0000E+00  0.0000E+00  0.0000E+00  9.0000E+01  9.0000E+01  9.0000E+01  0.0000E+00  9.9101E-02

  rolling -1.1810E+04  2.0019E+02 -1.5242E+04 -1.5242E+04  0.0000E+00  0.0000E+00  0.0000E+00  0.0000E+00  0.0000E+00
 averages -1.1159E+04  2.0188E+02 -4.8362E+02  1.5005E+04  0.0000E+00  0.0000E+00  0.0000E+00  0.0000E+00  0.0000E+00
           1.0408E+05  0.0000E+00  0.0000E+00  0.0000E+00  9.0000E+01  9.0000E+01  9.0000E+01  0.0000E+00  2.0120E-01
 ------------------------------------------------------------------------------------------------------------------------
 ------------------------------------------------------------------------------------------------------------------------

     step     eng_tot    temp_tot     eng_cfg     eng_vdw     eng_cou     eng_bnd     eng_ang     eng_dih     eng_tet
[...]
           1.0546E+05  0.0000E+00  0.0000E+00  0.0000E+00  9.0000E+01  9.0000E+01  9.0000E+01  0.0000E+00  7.7695E-03
 ------------------------------------------------------------------------------------------------------------------------
     4850 -1.1808E+04  2.0506E+02 -1.5212E+04 -1.5212E+04  0.0000E+00  0.0000E+00  0.0000E+00  0.0000E+00  0.0000E+00
   9.700p -1.0962E+04  2.0919E+02 -7.2509E+02  1.4768E+04  0.0000E+00  0.0000E+00  0.0000E+00  0.0000E+00  0.0000E+00
   1.788m  1.0448E+05  0.0000E+00  0.0000E+00  0.0000E+00  9.0000E+01  9.0000E+01  9.0000E+01  0.0000E+00  2.1574E-01

  rolling -1.1807E+04  2.0283E+02 -1.5186E+04 -1.5186E+04  0.0000E+00  0.0000E+00  0.0000E+00  0.0000E+00  0.0000E+00
 averages -1.2215E+04  2.0568E+02  2.9945E+03  1.7109E+04  0.0000E+00  0.0000E+00  0.0000E+00  0.0000E+00  0.0000E+00
           1.0538E+05  0.0000E+00  0.0000E+00  0.0000E+00  9.0000E+01  9.0000E+01  9.0000E+01  0.0000E+00  2.0104E-02
 ------------------------------------------------------------------------------------------------------------------------
     4860 -1.1808E+04  2.0268E+02 -1.5203E+04 -1.5203E+04  0.0000E+00  0.0000E+00  0.0000E+00  0.0000E+00  0.0000E+00
   9.720p -1.0533E+04  2.0715E+02 -2.1277E+03  1.3935E+04  0.0000E+00  0.0000E+00  0.0000E+00  0.0000E+00  0.0000E+00
   1.792m  1.0428E+05  0.0000E+00  0.0000E+00  0.0000E+00  9.0000E+01  9.0000E+01  9.0000E+01  0.0000E+00  2.8732E-01

  rolling -1.1807E+04  2.0350E+02 -1.5190E+04 -1.5190E+04  0.0000E+00  0.0000E+00  0.0000E+00  0.0000E+00  0.0000E+00
 averages -1.2060E+04  2.0671E+02  2.5529E+03  1.6835E+04  0.0000E+00  0.0000E+00  0.0000E+00  0.0000E+00  0.0000E+00
           1.0525E+05  0.0000E+00  0.0000E+00  0.0000E+00  9.0000E+01  9.0000E+01  9.0000E+01  0.0000E+00  4.3624E-02
 ------------------------------------------------------------------------------------------------------------------------
     4870 -1.1807E+04  2.0121E+02 -1.5209E+04 -1.5209E+04  0.0000E+00  0.0000E+00  0.0000E+00  0.0000E+00  0.0000E+00
   9.740p -1.0335E+04  2.0560E+02 -2.8255E+03  1.3609E+04  0.0000E+00  0.0000E+00  0.0000E+00  0.0000E+00  0.0000E+00
   1.795m  1.0417E+05  0.0000E+00  0.0000E+00  0.0000E+00  9.0000E+01  9.0000E+01  9.0000E+01  0.0000E+00  3.2299E-01

  rolling -1.1807E+04  2.0403E+02 -1.5196E+04 -1.5196E+04  0.0000E+00  0.0000E+00  0.0000E+00  0.0000E+00  0.0000E+00
 averages -1.1865E+04  2.0730E+02  1.9802E+03  1.6500E+04  0.0000E+00  0.0000E+00  0.0000E+00  0.0000E+00  0.0000E+00
           1.0511E+05  0.0000E+00  0.0000E+00  0.0000E+00  9.0000E+01  9.0000E+01  9.0000E+01  0.0000E+00  7.4092E-02
 ------------------------------------------------------------------------------------------------------------------------
 ------------------------------------------------------------------------------------------------------------------------

     step     eng_tot    temp_tot     eng_cfg     eng_vdw     eng_cou     eng_bnd     eng_ang     eng_dih     eng_tet
 time          eng_pv    temp_rot     vir_cfg     vir_vdw     vir_cou     vir_bnd     vir_ang     vir_con     vir_tet
 cpu time      volume    temp_shl     eng_shl     vir_shl       alpha        beta       gamma     vir_pmf       press

 ------------------------------------------------------------------------------------------------------------------------
     4880 -1.1807E+04  2.0116E+02 -1.5239E+04 -1.5239E+04  0.0000E+00  0.0000E+00  0.0000E+00  0.0000E+00  0.0000E+00
   9.760p -1.0461E+04  2.0577E+02 -2.5427E+03  1.3953E+04  0.0000E+00  0.0000E+00  0.0000E+00  0.0000E+00  0.0000E+00
   1.799m  1.0414E+05  0.0000E+00  0.0000E+00  0.0000E+00  9.0000E+01  9.0000E+01  9.0000E+01  0.0000E+00  3.0806E-01

  rolling -1.1808E+04  2.0449E+02 -1.5206E+04 -1.5206E+04  0.0000E+00  0.0000E+00  0.0000E+00  0.0000E+00  0.0000E+00
 averages -1.1663E+04  2.0766E+02  1.3751E+03  1.6165E+04  0.0000E+00  0.0000E+00  0.0000E+00  0.0000E+00  0.0000E+00
           1.0495E+05  0.0000E+00  0.0000E+00  0.0000E+00  9.0000E+01  9.0000E+01  9.0000E+01  0.0000E+00  1.0629E-01
 ------------------------------------------------------------------------------------------------------------------------
     4890 -1.1807E+04  2.0143E+02 -1.5276E+04 -1.5276E+04  0.0000E+00  0.0000E+00  0.0000E+00  0.0000E+00  0.0000E+00
   9.780p -1.0825E+04  2.0624E+02 -1.5494E+03  1.4716E+04  0.0000E+00  0.0000E+00  0.0000E+00  0.0000E+00  0.0000E+00
   1.803m  1.0420E+05  0.0000E+00  0.0000E+00  0.0000E+00  9.0000E+01  9.0000E+01  9.0000E+01  0.0000E+00  2.5593E-01

  rolling -1.1808E+04  2.0472E+02 -1.5217E+04 -1.5217E+04  0.0000E+00  0.0000E+00  0.0000E+00  0.0000E+00  0.0000E+00
 averages -1.1476E+04  2.0783E+02  7.9208E+02  1.5853E+04  0.0000E+00  0.0000E+00  0.0000E+00  0.0000E+00  0.0000E+00
           1.0480E+05  0.0000E+00  0.0000E+00  0.0000E+00  9.0000E+01  9.0000E+01  9.0000E+01  0.0000E+00  1.3706E-01
 ------------------------------------------------------------------------------------------------------------------------
     4900 -1.1807E+04  2.0062E+02 -1.5300E+04 -1.5300E+04  0.0000E+00  0.0000E+00  0.0000E+00  0.0000E+00  0.0000E+00
   9.800p -1.1246E+04  2.0537E+02 -4.0460E+02  1.5541E+04  0.0000E+00  0.0000E+00  0.0000E+00  0.0000E+00  0.0000E+00
   1.806m  1.0433E+05  0.0000E+00  0.0000E+00  0.0000E+00  9.0000E+01  9.0000E+01  9.0000E+01  0.0000E+00  1.9500E-01

  rolling -1.1808E+04  2.0448E+02 -1.5228E+04 -1.5228E+04  0.0000E+00  0.0000E+00  0.0000E+00  0.0000E+00  0.0000E+00
 averages -1.1312E+04  2.0767E+02  2.5517E+02  1.5567E+04  0.0000E+00  0.0000E+00  0.0000E+00  0.0000E+00  0.0000E+00
           1.0466E+05  0.0000E+00  0.0000E+00  0.0000E+00  9.0000E+01  9.0000E+01  9.0000E+01  0.0000E+00  1.6485E-01
 ------------------------------------------------------------------------------------------------------------------------
     4910 -1.1806E+04  1.9844E+02 -1.5304E+04 -1.5304E+04  0.0000E+00  0.0000E+00  0.0000E+00  0.0000E+00  0.0000E+00
   9.820p -1.1644E+04  2.0345E+02  6.4492E+02  1.6237E+04  0.0000E+00  0.0000E+00  0.0000E+00  0.0000E+00  0.0000E+00
   1.809m  1.0450E+05  0.0000E+00  0.0000E+00  0.0000E+00  9.0000E+01  9.0000E+01  9.0000E+01  0.0000E+00  1.3775E-01

  rolling -1.1808E+04  2.0378E+02 -1.5237E+04 -1.5237E+04  0.0000E+00  0.0000E+00  0.0000E+00  0.0000E+00  0.0000E+00
 averages -1.1195E+04  2.0726E+02 -1.6887E+02  1.5345E+04  0.0000E+00  0.0000E+00  0.0000E+00  0.0000E+00  0.0000E+00
           1.0455E+05  0.0000E+00  0.0000E+00  0.0000E+00  9.0000E+01  9.0000E+01  9.0000E+01  0.0000E+00  1.8619E-01
 ------------------------------------------------------------------------------------------------------------------------
     4920 -1.1805E+04  1.9500E+02 -1.5288E+04 -1.5288E+04  0.0000E+00  0.0000E+00  0.0000E+00  0.0000E+00  0.0000E+00
   9.840p -1.1963E+04  2.0066E+02  1.4392E+03  1.6714E+04  0.0000E+00  0.0000E+00  0.0000E+00  0.0000E+00  0.0000E+00
   1.813m  1.0468E+05  0.0000E+00  0.0000E+00  0.0000E+00  9.0000E+01  9.0000E+01  9.0000E+01  0.0000E+00  9.2647E-02

  rolling -1.1807E+04  2.0268E+02 -1.5245E+04 -1.5245E+04  0.0000E+00  0.0000E+00  0.0000E+00  0.0000E+00  0.0000E+00
 averages -1.1140E+04  2.0664E+02 -4.2804E+02  1.5223E+04  0.0000E+00  0.0000E+00  0.0000E+00  0.0000E+00  0.0000E+00
           1.0447E+05  0.0000E+00  0.0000E+00  0.0000E+00  9.0000E+01  9.0000E+01  9.0000E+01  0.0000E+00  1.9848E-01
 ------------------------------------------------------------------------------------------------------------------------
     4930 -1.1805E+04  1.9161E+02 -1.5268E+04 -1.5268E+04  0.0000E+00  0.0000E+00  0.0000E+00  0.0000E+00  0.0000E+00
   9.860p -1.2210E+04  1.9789E+02  2.0354E+03  1.7113E+04  0.0000E+00  0.0000E+00  0.0000E+00  0.0000E+00  0.0000E+00
   1.817m  1.0486E+05  0.0000E+00  0.0000E+00  0.0000E+00  9.0000E+01  9.0000E+01  9.0000E+01  0.0000E+00  5.8104E-02

  rolling -1.1807E+04  2.0119E+02 -1.5250E+04 -1.5250E+04  0.0000E+00  0.0000E+00  0.0000E+00  0.0000E+00  0.0000E+00
 averages -1.1145E+04  2.0568E+02 -5.2215E+02  1.5210E+04  0.0000E+00  0.0000E+00  0.0000E+00  0.0000E+00  0.0000E+00
           1.0444E+05  0.0000E+00  0.0000E+00  0.0000E+00  9.0000E+01  9.0000E+01  9.0000E+01  0.0000E+00  2.0179E-01
 ------------------------------------------------------------------------------------------------------------------------
     4940 -1.1804E+04  1.8936E+02 -1.5253E+04 -1.5253E+04  0.0000E+00  0.0000E+00  0.0000E+00  0.0000E+00  0.0000E+00
   9.880p -1.2414E+04  1.9607E+02  2.5567E+03  1.7544E+04  0.0000E+00  0.0000E+00  0.0000E+00  0.0000E+00  0.0000E+00
   1.820m  1.0503E+05  0.0000E+00  0.0000E+00  0.0000E+00  9.0000E+01  9.0000E+01  9.0000E+01  0.0000E+00  2.8692E-02

  rolling -1.1807E+04  1.9946E+02 -1.5254E+04 -1.5254E+04  0.0000E+00  0.0000E+00  0.0000E+00  0.0000E+00  0.0000E+00
 averages -1.1211E+04  2.0438E+02 -4.4161E+02  1.5322E+04  0.0000E+00  0.0000E+00  0.0000E+00  0.0000E+00  0.0000E+00
           1.0445E+05  0.0000E+00  0.0000E+00  0.0000E+00  9.0000E+01  9.0000E+01  9.0000E+01  0.0000E+00  1.9581E-01
 ------------------------------------------------------------------------------------------------------------------------
     4950 -1.1804E+04  1.8849E+02 -1.5246E+04 -1.5246E+04  0.0000E+00  0.0000E+00  0.0000E+00  0.0000E+00  0.0000E+00
   9.900p -1.2602E+04  1.9579E+02  3.0812E+03  1.7980E+04  0.0000E+00  0.0000E+00  0.0000E+00  0.0000E+00  0.0000E+00
   1.824m  1.0516E+05  0.0000E+00  0.0000E+00  0.0000E+00  9.0000E+01  9.0000E+01  9.0000E+01  0.0000E+00  3.0928E-04

  rolling -1.1806E+04  1.9773E+02 -1.5257E+04 -1.5257E+04  0.0000E+00  0.0000E+00  0.0000E+00  0.0000E+00  0.0000E+00
 averages -1.1344E+04  2.0298E+02 -1.5827E+02  1.5578E+04  0.0000E+00  0.0000E+00  0.0000E+00  0.0000E+00  0.0000E+00
           1.0450E+05  0.0000E+00  0.0000E+00  0.0000E+00  9.0000E+01  9.0000E+01  9.0000E+01  0.0000E+00  1.7929E-01
 ------------------------------------------------------------------------------------------------------------------------
 ------------------------------------------------------------------------------------------------------------------------

     step     eng_tot    temp_tot     eng_cfg     eng_vdw     eng_cou     eng_bnd     eng_ang     eng_dih     eng_tet
 time          eng_pv    temp_rot     vir_cfg     vir_vdw     vir_cou     vir_bnd     vir_ang     vir_con     vir_tet
 cpu time      volume    temp_shl     eng_shl     vir_shl       alpha        beta       gamma     vir_pmf       press

 ------------------------------------------------------------------------------------------------------------------------
     4960 -1.1804E+04  1.8897E+02 -1.5246E+04 -1.5246E+04  0.0000E+00  0.0000E+00  0.0000E+00  0.0000E+00  0.0000E+00
   9.920p -1.2764E+04  1.9682E+02  3.5892E+03  1.8342E+04  0.0000E+00  0.0000E+00  0.0000E+00  0.0000E+00  0.0000E+00
   1.828m  1.0524E+05  0.0000E+00  0.0000E+00  0.0000E+00  9.0000E+01  9.0000E+01  9.0000E+01  0.0000E+00 -2.5967E-02

  rolling -1.1806E+04  1.9622E+02 -1.5261E+04 -1.5261E+04  0.0000E+00  0.0000E+00  0.0000E+00  0.0000E+00  0.0000E+00
 averages -1.1542E+04  2.0180E+02  3.3264E+02  1.5969E+04  0.0000E+00  0.0000E+00  0.0000E+00  0.0000E+00  0.0000E+00
           1.0459E+05  0.0000E+00  0.0000E+00  0.0000E+00  9.0000E+01  9.0000E+01  9.0000E+01  0.0000E+00  1.5209E-01
 ------------------------------------------------------------------------------------------------------------------------
     4970 -1.1804E+04  1.8997E+02 -1.5242E+04 -1.5242E+04  0.0000E+00  0.0000E+00  0.0000E+00  0.0000E+00  0.0000E+00
   9.940p -1.2797E+04  1.9760E+02  3.7627E+03  1.8429E+04  0.0000E+00  0.0000E+00  0.0000E+00  0.0000E+00  0.0000E+00
   1.831m  1.0528E+05  0.0000E+00  0.0000E+00  0.0000E+00  9.0000E+01  9.0000E+01  9.0000E+01  0.0000E+00 -3.3961E-02

  rolling -1.1805E+04  1.9500E+02 -1.5265E+04 -1.5265E+04  0.0000E+00  0.0000E+00  0.0000E+00  0.0000E+00  0.0000E+00
 averages -1.1782E+04  2.0092E+02  9.6396E+02  1.6441E+04  0.0000E+00  0.0000E+00  0.0000E+00  0.0000E+00  0.0000E+00
           1.0469E+05  0.0000E+00  0.0000E+00  0.0000E+00  9.0000E+01  9.0000E+01  9.0000E+01  0.0000E+00  1.1775E-01
 ------------------------------------------------------------------------------------------------------------------------
     4980 -1.1804E+04  1.9078E+02 -1.5225E+04 -1.5225E+04  0.0000E+00  0.0000E+00  0.0000E+00  0.0000E+00  0.0000E+00
   9.960p -1.2638E+04  1.9742E+02  3.3959E+03  1.8110E+04  0.0000E+00  0.0000E+00  0.0000E+00  0.0000E+00  0.0000E+00
   1.835m  1.0526E+05  0.0000E+00  0.0000E+00  0.0000E+00  9.0000E+01  9.0000E+01  9.0000E+01  0.0000E+00 -1.3657E-02

  rolling -1.1805E+04  1.9393E+02 -1.5266E+04 -1.5266E+04  0.0000E+00  0.0000E+00  0.0000E+00  0.0000E+00  0.0000E+00
 averages -1.2017E+04  2.0011E+02  1.5991E+03  1.6895E+04  0.0000E+00  0.0000E+00  0.0000E+00  0.0000E+00  0.0000E+00
           1.0480E+05  0.0000E+00  0.0000E+00  0.0000E+00  9.0000E+01  9.0000E+01  9.0000E+01  0.0000E+00  8.3367E-02
 ------------------------------------------------------------------------------------------------------------------------
     4990 -1.1804E+04  1.9224E+02 -1.5206E+04 -1.5206E+04  0.0000E+00  0.0000E+00  0.0000E+00  0.0000E+00  0.0000E+00
   9.980p -1.2392E+04  1.9835E+02  2.8046E+03  1.7594E+04  0.0000E+00  0.0000E+00  0.0000E+00  0.0000E+00  0.0000E+00
   1.839m  1.0518E+05  0.0000E+00  0.0000E+00  0.0000E+00  9.0000E+01  9.0000E+01  9.0000E+01  0.0000E+00  1.8642E-02

  rolling -1.1805E+04  1.9294E+02 -1.5261E+04 -1.5261E+04  0.0000E+00  0.0000E+00  0.0000E+00  0.0000E+00  0.0000E+00
 averages -1.2202E+04  1.9927E+02  2.1084E+03  1.7242E+04  0.0000E+00  0.0000E+00  0.0000E+00  0.0000E+00  0.0000E+00
           1.0491E+05  0.0000E+00  0.0000E+00  0.0000E+00  9.0000E+01  9.0000E+01  9.0000E+01  0.0000E+00  5.5692E-02
 ------------------------------------------------------------------------------------------------------------------------
     5000 -1.1804E+04  1.9561E+02 -1.5206E+04 -1.5206E+04  0.0000E+00  0.0000E+00  0.0000E+00  0.0000E+00  0.0000E+00
  10.000p -1.2165E+04  2.0248E+02  2.3142E+03  1.7194E+04  0.0000E+00  0.0000E+00  0.0000E+00  0.0000E+00  0.0000E+00
   1.843m  1.0508E+05  0.0000E+00  0.0000E+00  0.0000E+00  9.0000E+01  9.0000E+01  9.0000E+01  0.0000E+00  4.6643E-02

  rolling -1.1804E+04  1.9223E+02 -1.5253E+04 -1.5253E+04  0.0000E+00  0.0000E+00  0.0000E+00  0.0000E+00  0.0000E+00
 averages -1.2323E+04  1.9872E+02  2.4531E+03  1.7460E+04  0.0000E+00  0.0000E+00  0.0000E+00  0.0000E+00  0.0000E+00
           1.0500E+05  0.0000E+00  0.0000E+00  0.0000E+00  9.0000E+01  9.0000E+01  9.0000E+01  0.0000E+00  3.6876E-02
 ------------------------------------------------------------------------------------------------------------------------


 run terminating. elapsed cpu time =   1.10564E+02, job time =   1.000h, close time =  100.00s



 run terminated after    5000 steps. final averages calculated over    4900 steps.


 ------------------------------------------------------------------------------------------------------------------------

     step     eng_tot    temp_tot     eng_cfg     eng_vdw     eng_cou     eng_bnd     eng_ang     eng_dih     eng_tet
 time          eng_pv    temp_rot     vir_cfg     vir_vdw     vir_cou     vir_bnd     vir_ang     vir_con     vir_tet
 cpu time      volume    temp_shl     eng_shl     vir_shl       alpha        beta       gamma     vir_pmf       press

 ------------------------------------------------------------------------------------------------------------------------
     5000 -1.1809E+04  1.9991E+02 -1.5287E+04 -1.5287E+04  0.0000E+00  0.0000E+00  0.0000E+00  0.0000E+00  0.0000E+00
  10.000p -1.1856E+04  1.9918E+02  1.4829E+03  1.6358E+04  0.0000E+00  0.0000E+00  0.0000E+00  0.0000E+00  0.0000E+00
   1.844m  1.0442E+05  0.0000E+00  0.0000E+00  0.0000E+00  9.0000E+01  9.0000E+01  9.0000E+01  0.0000E+00  9.9030E-02

  r.m.s.   2.3000E+00  5.5766E+00  9.4504E+01  9.4504E+01  0.0000E+00  0.0000E+00  0.0000E+00  0.0000E+00  0.0000E+00
 fluctn.   6.6545E+02  8.1172E+00  1.9553E+03  1.3634E+03  0.0000E+00  0.0000E+00  0.0000E+00  0.0000E+00  0.0000E+00
           5.6490E+02  0.0000E+00  0.0000E+00  0.0000E+00  1.4532E-13  1.4532E-13  1.4532E-13  0.0000E+00  1.0287E-01
 ------------------------------------------------------------------------------------------------------------------------


            Approximate 3D Diffusion  coefficients (10^-9 m^2 / s)

            atom        D 
            C_3        3.6187E+00
            C_1        2.8221E+00


                Average pressure tensor                                       r.m.s. fluctuations 

           1.2058E-01 -1.1254E-02 -1.8917E-02                          1.4287E-01  8.4618E-02  8.0667E-02
          -1.1254E-02  1.0259E-01 -2.9103E-03                          8.4618E-02  1.3179E-01  7.5798E-02
          -1.8917E-02 -2.9103E-03  7.3928E-02                          8.0667E-02  7.5798E-02  1.4742E-01

            trace/3.   9.9031E-02


                 Average cell vectors                                         r.m.s. fluctuations 

       47.0902979091        0.0000000000        0.0000000000           8.4931E-02  0.0000E+00  0.0000E+00
        0.0000000000       47.0902979091        0.0000000000           0.0000E+00  8.4931E-02  0.0000E+00
        0.0000000000        0.0000000000       47.0902979192           0.0000E+00  0.0000E+00  8.4931E-02


 sample of final configuration

      i       x(i)        y(i)        z(i)       vx(i)       vy(i)       vz(i)       fx(i)       fy(i)       fz(i)


      1 -2.6710E+00 -3.7074E+00 -6.6385E+00 -2.4615E+00  5.0937E-01  5.0507E-01  1.9148E+03  1.5781E+03 -9.1090E+02
    204 -2.3200E+01  1.3570E+01  1.5351E+00  2.6968E+00 -2.6538E+00  1.1446E+00  3.5138E+02  4.5658E+01 -1.3764E+02
    407 -7.2441E+00  1.5841E+01 -1.9233E+01  1.0246E+00 -3.3759E+00 -1.2110E+00  5.9806E+01 -2.6191E+01  5.7649E+01
    610  1.3624E+01  8.6209E+00 -1.2639E+01  9.5876E-01  3.4213E+00 -1.1767E-01 -2.2920E+01  7.0701E+01  7.3421E+01
    813 -7.9860E+00  1.2338E+01 -1.5648E+01 -2.7890E-02  3.1524E-01  7.3635E-01 -6.4555E+00  5.1872E+01 -3.0982E+01
   1016 -1.6747E+01 -1.0222E+01 -1.9241E+01 -2.7804E+00  1.8322E+00  1.7599E+00  4.3708E+02  4.6905E+02 -4.7416E+02
   1219 -5.5083E-01  1.0070E+00  2.3186E+01  9.9643E-01 -2.4895E-01 -2.2872E+00 -1.0083E+03 -6.4566E+02  4.8849E+02
   1422  9.2481E+00  4.7605E+00  9.5524E+00  2.5058E+00  1.9338E+00 -3.5538E+00  1.5056E+02  8.2502E+02  3.2300E+02
   1625  1.0430E+01 -2.3073E+01 -6.2169E+00 -6.7286E-01  1.0201E+00 -2.0340E+00 -5.9185E+01  4.7175E+01  1.3873E+02
   1828  2.1105E+01  4.7306E+00 -1.8867E+01 -6.5303E-01  1.0780E+00  2.8930E+00 -2.3406E+02 -3.6075E+02 -2.9323E+02
   2031  9.0940E+00 -2.8225E+00 -2.1190E+00 -9.9940E-01  1.9947E+00 -2.8570E-01 -9.3964E+01  6.1011E+02 -1.6157E+02
   2234  1.5715E+01  1.6348E+01  1.0650E+01 -9.0926E-01 -2.1288E+00  5.6776E-01 -2.5830E+02 -8.3608E+02 -5.5806E+02
   2437  8.7044E+00 -2.2909E+01  6.0281E+00 -2.5949E+00 -6.0572E+00  3.6676E+00 -1.3156E+02  9.8816E+00 -1.6649E+01
   2640  2.0582E+01 -1.7337E+01  1.6131E+01  1.3315E+00 -1.6915E+00  8.4941E-02  4.5519E+02 -4.9418E+02  3.7632E+01
   2843 -1.7196E+00  1.5874E+01 -5.0082E+00 -1.6274E+00 -3.9008E-01 -1.2035E+00  2.0939E+02 -1.0134E+02 -3.8115E+02
   3046 -9.2864E+00 -1.5749E+01  1.8900E+01  5.1149E-01 -2.1484E+00 -1.0283E+00  6.0636E+02  3.9744E+02 -3.5652E+02
   3249 -2.1045E+01  1.0609E+01  1.0773E+01  8.9606E-01  4.1880E-01  1.5893E+00 -3.8261E+02  3.8664E+02  3.5642E+02
   3452 -9.3291E+00  2.2071E+01  2.0471E+01  2.1037E+00 -9.6746E-01 -4.2214E-01 -1.1606E+02 -7.0630E+01 -5.5191E+01
   3655 -2.0008E+01 -1.4503E+01  1.5487E+01 -2.2662E+00  9.7120E-02 -3.1730E+00 -1.6615E+01 -4.1025E+02 -7.6926E+02
   3858 -1.7239E+00  4.4318E+00 -2.1653E+01  2.5019E+00 -2.1076E+00 -3.7563E-01  3.8410E+01 -2.6655E+01  3.0064E+01

 time elapsed since job start =         110.669 seconds

