
                    DL_POLY Classic 1.2

                              Running on    8 nodes


 ************************************************************************************************************************
 ************************************************************************************************************************
 ************************************************************************************************************************
 ***************     DL_POLY TEST 36: DMSO Excitation Test Case                                           ***************
 ************************************************************************************************************************
 ************************************************************************************************************************
 ************************************************************************************************************************


 SIMULATION CONTROL PARAMETERS


 leapfrog verlet integration selected

 simulation temperature           2.9800E+02

 selected number of timesteps         1000

 equilibration period                  500

 simulation timestep              1.0000E-03

 data printing interval                 10

 statistics file interval               10

 noscale restart requested

 Nose-Hoover 
 thermostat relaxation time       1.0000E-01


 radial distribution functions on 
 g(r) collection interval               10
 g(r) bin width                   5.0000E-02

 g(r) printing option on      

 real space cut off               1.3000E+01

 real space cut off (vdw)         1.3000E+01

 border width of Verlet shell     1.0000E+00


 Electrostatics : reaction field


 relative dielectric constant     4.6000E+01

 excitation option selected
 energy decomposition start              500
 energy decomposition interval            10
 system A first atom                    5021
 system A last atom                     5120
 system B first atom                    5121
 system B last atom                     5220

 user allocated job time (h)      1.0000

 job closure time        (s)     100.000


SYSTEM SPECIFICATION

 energy units=kcal/ mol 


 number of molecular types               2

 molecular species type                  1


 name of species:             DMSO                                    

 number of molecules                   512

 number of atoms/sites                  10


 atomic characteristics:

                      site     name          mass        charge    repeat    freeze

                         1     S           32.06000     0.11674         1         0
                         2     O           15.99940    -0.43674         1         0
                         3     C           12.01100     0.16000         1         0
                         4     C           12.01100     0.16000         1         0
                         5     H            1.00800     0.00000         1         0
                         6     H            1.00800     0.00000         1         0
                         7     H            1.00800     0.00000         1         0
                         8     H            1.00800     0.00000         1         0
                         9     H            1.00800     0.00000         1         0
                        10     H            1.00800     0.00000         1         0

 number of bond constraints              9


 constraint bond details:

                          index     index  bondlength

                              1         2    1.590000
                              1         3    1.800000
                              3         5    1.090000
                              1         4    1.800000
                              3         6    1.090000
                              3         7    1.090000
                              4         8    1.090000
                              4        10    1.090000
                              4         9    1.090000

 number of bond angles                  15


 bond angle details:

                            key     index     index     index     f-const       angle

                           hcos         2         1         3  1.0013E+02   92.100000    0.000000    0.000000    0.000000    0.000000
                           hcos         2         1         4  1.0013E+02   92.100000    0.000000    0.000000    0.000000    0.000000
                           hcos         3         1         4  1.0013E+02   92.100000    0.000000    0.000000    0.000000    0.000000
                           hcos         1         3         5  1.1250E+02  109.471000    0.000000    0.000000    0.000000    0.000000
                           hcos         1         3         6  1.1250E+02  109.471000    0.000000    0.000000    0.000000    0.000000
                           hcos         5         3         6  1.1250E+02  109.471000    0.000000    0.000000    0.000000    0.000000
                           hcos         1         3         7  1.1250E+02  109.471000    0.000000    0.000000    0.000000    0.000000
                           hcos         5         3         7  1.1250E+02  109.471000    0.000000    0.000000    0.000000    0.000000
                           hcos         6         3         7  1.1250E+02  109.471000    0.000000    0.000000    0.000000    0.000000
                           hcos         1         4         8  1.1250E+02  109.471000    0.000000    0.000000    0.000000    0.000000
                           hcos         1         4        10  1.1250E+02  109.471000    0.000000    0.000000    0.000000    0.000000
                           hcos         8         4        10  1.1250E+02  109.471000    0.000000    0.000000    0.000000    0.000000
                           hcos         1         4         9  1.1250E+02  109.471000    0.000000    0.000000    0.000000    0.000000
                           hcos         8         4         9  1.1250E+02  109.471000    0.000000    0.000000    0.000000    0.000000
                           hcos         9         4        10  1.1250E+02  109.471000    0.000000    0.000000    0.000000    0.000000

 number of dihedral angles              12


 dihedral angle details:

                            key     index     index     index     index     f-const       angle        trig    1-4 elec     1-4 vdw

                           cos          2         1         3         5  1.6667E-01    0.000000    3.000000    1.000000    1.000000
                           cos          2         1         3         6  1.6667E-01    0.000000    3.000000    1.000000    1.000000
                           cos          2         1         3         7  1.6667E-01    0.000000    3.000000    1.000000    1.000000
                           cos          4         1         3         5  1.6667E-01    0.000000    3.000000    1.000000    1.000000
                           cos          4         1         3         6  1.6667E-01    0.000000    3.000000    1.000000    1.000000
                           cos          4         1         3         7  1.6667E-01    0.000000    3.000000    1.000000    1.000000
                           cos          2         1         4         8  1.6667E-01    0.000000    3.000000    1.000000    1.000000
                           cos          2         1         4        10  1.6667E-01    0.000000    3.000000    1.000000    1.000000
                           cos          2         1         4         9  1.6667E-01    0.000000    3.000000    1.000000    1.000000
                           cos          3         1         4         8  1.6667E-01    0.000000    3.000000    1.000000    1.000000
                           cos          3         1         4        10  1.6667E-01    0.000000    3.000000    1.000000    1.000000
                           cos          3         1         4         9  1.6667E-01    0.000000    3.000000    1.000000    1.000000

 molecular species type                  2


 name of species:             DMSO*                                   

 number of molecules                    10

 number of atoms/sites                  10


 atomic characteristics:

                      site     name          mass        charge    repeat    freeze

                        11     S*          32.06000     1.11674         1         0
                        12     O*          15.99940    -1.43674         1         0
                        13     C           12.01100     0.16000         1         0
                        14     C           12.01100     0.16000         1         0
                        15     H            1.00800     0.00000         1         0
                        16     H            1.00800     0.00000         1         0
                        17     H            1.00800     0.00000         1         0
                        18     H            1.00800     0.00000         1         0
                        19     H            1.00800     0.00000         1         0
                        20     H            1.00800     0.00000         1         0

 number of bond constraints              9


 constraint bond details:

                          index     index  bondlength

                              1         2    1.590000
                              1         3    1.800000
                              3         5    1.090000
                              1         4    1.800000
                              3         6    1.090000
                              3         7    1.090000
                              4         8    1.090000
                              4        10    1.090000
                              4         9    1.090000

 number of bond angles                  15


 bond angle details:

                            key     index     index     index     f-const       angle

                           hcos         2         1         3  1.0013E+02   92.100000    0.000000    0.000000    0.000000    0.000000
                           hcos         2         1         4  1.0013E+02   92.100000    0.000000    0.000000    0.000000    0.000000
                           hcos         3         1         4  1.0013E+02   92.100000    0.000000    0.000000    0.000000    0.000000
                           hcos         1         3         5  1.1250E+02  109.471000    0.000000    0.000000    0.000000    0.000000
                           hcos         1         3         6  1.1250E+02  109.471000    0.000000    0.000000    0.000000    0.000000
                           hcos         5         3         6  1.1250E+02  109.471000    0.000000    0.000000    0.000000    0.000000
                           hcos         1         3         7  1.1250E+02  109.471000    0.000000    0.000000    0.000000    0.000000
                           hcos         5         3         7  1.1250E+02  109.471000    0.000000    0.000000    0.000000    0.000000
                           hcos         6         3         7  1.1250E+02  109.471000    0.000000    0.000000    0.000000    0.000000
                           hcos         1         4         8  1.1250E+02  109.471000    0.000000    0.000000    0.000000    0.000000
                           hcos         1         4        10  1.1250E+02  109.471000    0.000000    0.000000    0.000000    0.000000
                           hcos         8         4        10  1.1250E+02  109.471000    0.000000    0.000000    0.000000    0.000000
                           hcos         1         4         9  1.1250E+02  109.471000    0.000000    0.000000    0.000000    0.000000
                           hcos         8         4         9  1.1250E+02  109.471000    0.000000    0.000000    0.000000    0.000000
                           hcos         9         4        10  1.1250E+02  109.471000    0.000000    0.000000    0.000000    0.000000

 number of dihedral angles              12


 dihedral angle details:

                            key     index     index     index     index     f-const       angle        trig    1-4 elec     1-4 vdw

                           cos          2         1         3         5  1.6667E-01    0.000000    3.000000    1.000000    1.000000
                           cos          2         1         3         6  1.6667E-01    0.000000    3.000000    1.000000    1.000000
                           cos          2         1         3         7  1.6667E-01    0.000000    3.000000    1.000000    1.000000
                           cos          4         1         3         5  1.6667E-01    0.000000    3.000000    1.000000    1.000000
                           cos          4         1         3         6  1.6667E-01    0.000000    3.000000    1.000000    1.000000
                           cos          4         1         3         7  1.6667E-01    0.000000    3.000000    1.000000    1.000000
                           cos          2         1         4         8  1.6667E-01    0.000000    3.000000    1.000000    1.000000
                           cos          2         1         4        10  1.6667E-01    0.000000    3.000000    1.000000    1.000000
                           cos          2         1         4         9  1.6667E-01    0.000000    3.000000    1.000000    1.000000
                           cos          3         1         4         8  1.6667E-01    0.000000    3.000000    1.000000    1.000000
                           cos          3         1         4        10  1.6667E-01    0.000000    3.000000    1.000000    1.000000
                           cos          3         1         4         9  1.6667E-01    0.000000    3.000000    1.000000    1.000000


 number of specified pair potentials        21


                atom 1  atom 2      key                              parameters


                S       S         12-6     6.31276E+06  2.94726E+03
                S*      S*        12-6     6.31276E+06  2.94726E+03
                S       S*        12-6     6.31276E+06  2.94726E+03
                S       O         12-6     1.26318E+06  9.57483E+02
                S*      O*        12-6     1.26318E+06  9.57483E+02
                S       O*        12-6     1.26318E+06  9.57483E+02
                S*      O         12-6     1.26318E+06  9.57483E+02
                S       C         12-6     2.72377E+06  1.40378E+03
                S*      C         12-6     2.72377E+06  1.40378E+03
                S       H         12-6     3.57187E+05  3.21424E+02
                S*      H         12-6     3.57187E+05  3.21424E+02
                O       O         12-6     2.32116E+05  2.98084E+02
                O*      O*        12-6     2.32116E+05  2.98084E+02
                O       O*        12-6     2.32116E+05  2.98084E+02
                O       C         12-6     5.35958E+05  4.52239E+02
                O*      C         12-6     5.35958E+05  4.52239E+02
                O       H         12-6     6.35666E+04  9.84767E+01
                O*      H         12-6     6.35666E+04  9.84767E+01
                C       C         12-6     1.17134E+06  6.67517E+02
                C       H         12-6     1.50602E+05  1.51339E+02
                H       H         12-6     1.71986E+04  3.23369E+01

 configuration file name: 

          Dimethyl Sulfoxide                                                              


 selected image convention               1


 simulation cell vectors


                        40.351897    0.000000    0.000000
                         0.000000   40.351897    0.000000
                         0.000000    0.000000   40.351897


 system volume            65704.0089859    

 shared atoms from passcon                       0


 total degrees of freedom                     10749.
 rotational degrees of freedom                    0.
 shell pseudo degrees of freedom                  0.


 sample of starting configuration

      i       x(i)        y(i)        z(i)       vx(i)       vy(i)       vz(i)       fx(i)       fy(i)       fz(i)


      1 -1.1067E+01 -1.5990E+01  1.8234E+01 -5.0051E+00 -1.4052E+00 -3.0638E+00 -7.4634E+02  7.7080E+03 -2.1924E+03
    257 -6.0164E+00  7.0851E+00 -2.0149E+01 -6.1486E+00 -6.8285E+00 -1.2695E+01 -6.6783E+03 -2.2622E+03 -8.1220E+03
    513  8.0451E+00  1.2762E+01 -1.6223E+01  6.7455E-01  3.6648E-01  4.6797E+00  8.5353E+03  1.3050E+04  1.1542E+03
    769 -7.1826E+00 -1.5703E+01 -1.4064E+01  1.3712E+00 -4.7277E+00  8.0516E+00  8.4290E+02 -3.9632E+02 -1.7488E+03
   1025 -2.0119E+01  1.4047E-01 -1.7031E+01 -5.9740E+00 -1.2167E+01  1.2741E+01 -3.9210E+03 -4.3955E+03  2.5889E+03
   1281 -1.5465E+01 -3.8568E+00 -5.6222E+00 -1.7918E+00  3.6129E-01 -4.6323E-01  4.7508E+03 -4.5116E+03 -4.0757E+03
   1537 -4.1542E+00  5.2091E+00 -9.8523E+00  2.5974E-01  3.4940E+00 -1.3569E+01 -9.0886E+02 -1.8874E+03  2.3755E+03
   1793 -1.3707E+01  8.4559E+00 -1.5878E+01  2.6745E+00  5.1271E+00  1.8609E-01  1.1976E+03 -4.7785E+03  1.1606E+04
   2049  3.4806E+00 -1.4404E+00 -2.5243E+00 -2.1960E+00 -2.0957E+01 -1.4198E+01  1.1408E+03 -6.1432E+03 -5.3694E+02
   2305  8.9488E+00  1.0748E+01 -2.0271E+00 -1.8562E+00 -1.9511E+01  1.9383E+00  3.2572E+03  2.8384E+03 -8.8730E+02
   2561 -1.3970E+01  1.9011E+01  3.0666E+00  1.4055E+00 -7.5102E-01 -2.9818E+00 -1.1099E+04 -4.0651E+03 -1.1893E+04
   2817 -1.4575E+01 -1.0607E+01  2.2841E+00 -4.7104E+00 -1.8536E+00  6.7694E-01  2.4815E+03 -7.2049E+02 -5.7010E+02
   3073 -6.3214E+00 -2.0176E+01  3.5374E+00  9.2663E+00 -1.2232E+00  4.6848E+00  4.0807E+03  4.0100E+03  2.2881E+03
   3329  2.8198E+00 -1.6738E+01  3.1512E+00  2.0179E+01 -4.1978E+00  1.3056E+01 -1.2834E+03  6.3455E+02 -3.7096E+03
   3585  2.4194E+00  1.3102E+01  1.2453E+01 -4.0811E+00  9.9242E+00 -3.2705E+00  2.6978E+02 -2.9885E+03 -3.6050E+02
   3841 -1.8216E+01  1.9976E+01  1.4805E+01  1.4520E+00 -2.1485E+00 -3.7783E+00  2.4395E+03 -2.1200E+03 -4.6067E+03
   4097 -2.0083E+01 -5.1189E-01  1.4811E+01 -3.6537E+00 -9.5454E+00 -9.1831E+00  9.7737E+02 -3.8181E+03 -2.4447E+03
   4353  4.0681E+00  1.2148E+01  6.4338E+00 -3.3775E+00 -9.1288E-01  5.5097E+00 -8.5189E+03  2.4128E+03  4.0752E+03
   4609  9.2299E+00 -1.1370E+01  1.1042E+01 -9.9074E+00 -4.1339E+00  8.6811E+00 -6.8051E+03  2.0149E+03  1.1708E+03
   4865  1.8709E+01  6.9412E+00  1.8015E+01 -5.9405E+00  4.0503E+00 -1.6101E+01  5.6725E+02  3.6098E+03 -1.2071E+03


long range correction for: vdw energy    -0.954171E+02
                         : vdw pressure  -0.199134E+00


long range correction for: vdw energy    -0.954171E+02
                         : vdw pressure  -0.199134E+00

 time elapsed since job start =           1.082 seconds

 ------------------------------------------------------------------------------------------------------------------------

     step     eng_tot    temp_tot     eng_cfg     eng_vdw     eng_cou     eng_bnd     eng_ang     eng_dih     eng_tet
 time          eng_pv    temp_rot     vir_cfg     vir_vdw     vir_cou     vir_bnd     vir_ang     vir_con     vir_tet
 cpu time      volume    temp_shl     eng_shl     vir_shl       alpha        beta       gamma     vir_pmf       press

 ------------------------------------------------------------------------------------------------------------------------
        1  3.0280E+03  3.0071E+02 -1.8367E+02 -1.9489E+03 -1.6161E+03  0.0000E+00  2.9931E+03  3.8822E+02  0.0000E+00
   1.000f  5.0851E+03  0.0000E+00  2.5219E+02 -2.2304E+04  1.6511E+03  0.0000E+00  0.0000E+00  2.0906E+04  0.0000E+00
   1.238s  6.5704E+04  0.0000E+00  0.0000E+00  0.0000E+00  9.0000E+01  9.0000E+01  9.0000E+01  0.0000E+00  2.1467E+00

  rolling  3.0280E+03  3.0071E+02 -1.8367E+02 -1.9489E+03 -1.6161E+03  0.0000E+00  2.9931E+03  3.8822E+02  0.0000E+00
 averages  5.0851E+03  0.0000E+00  2.5219E+02 -2.2304E+04  1.6511E+03  0.0000E+00  0.0000E+00  2.0906E+04  0.0000E+00
           6.5704E+04  0.0000E+00  0.0000E+00  0.0000E+00  9.0000E+01  9.0000E+01  9.0000E+01  0.0000E+00  2.1467E+00
 ------------------------------------------------------------------------------------------------------------------------
       10  3.0232E+03  3.2873E+02 -4.8937E+02 -2.0575E+03 -1.6168E+03  0.0000E+00  2.7938E+03  3.9117E+02  0.0000E+00
  10.000f  5.8250E+03  0.0000E+00 -1.3883E+03 -2.0951E+04  1.6490E+03  0.0000E+00  0.0000E+00  1.7914E+04  0.0000E+00
   1.857s  6.5704E+04  0.0000E+00  0.0000E+00  0.0000E+00  9.0000E+01  9.0000E+01  9.0000E+01  0.0000E+00  2.9256E+00

  rolling  3.0238E+03  3.1936E+02 -3.8744E+02 -2.0230E+03 -1.6162E+03  0.0000E+00  2.8621E+03  3.8965E+02  0.0000E+00
 averages  5.7551E+03  0.0000E+00 -1.3736E+03 -2.1380E+04  1.6496E+03  0.0000E+00  0.0000E+00  1.8356E+04  0.0000E+00
           6.5704E+04  0.0000E+00  0.0000E+00  0.0000E+00  9.0000E+01  9.0000E+01  9.0000E+01  0.0000E+00  2.8508E+00
 ------------------------------------------------------------------------------------------------------------------------
       20  3.0242E+03  3.2497E+02 -4.5630E+02 -2.0632E+03 -1.6221E+03  0.0000E+00  2.8299E+03  3.9902E+02  0.0000E+00
  20.000f  5.6963E+03  0.0000E+00 -1.1039E+03 -2.0894E+04  1.6526E+03  0.0000E+00  0.0000E+00  1.8137E+04  0.0000E+00
   2.618s  6.5704E+04  0.0000E+00  0.0000E+00  0.0000E+00  9.0000E+01  9.0000E+01  9.0000E+01  0.0000E+00  2.7987E+00

  rolling  3.0238E+03  3.2309E+02 -4.2977E+02 -2.0409E+03 -1.6179E+03  0.0000E+00  2.8368E+03  3.9220E+02  0.0000E+00
 averages  5.8202E+03  0.0000E+00 -1.4968E+03 -2.1164E+04  1.6502E+03  0.0000E+00  0.0000E+00  1.8017E+04  0.0000E+00
           6.5704E+04  0.0000E+00  0.0000E+00  0.0000E+00  9.0000E+01  9.0000E+01  9.0000E+01  0.0000E+00  2.9214E+00
 ------------------------------------------------------------------------------------------------------------------------
       30  3.0238E+03  3.3577E+02 -5.8718E+02 -2.0759E+03 -1.6272E+03  0.0000E+00  2.7108E+03  4.0510E+02  0.0000E+00
  30.000f  5.3563E+03  0.0000E+00  9.9972E+01 -2.0717E+04  1.6540E+03  0.0000E+00  0.0000E+00  1.9163E+04  0.0000E+00
   3.385s  6.5704E+04  0.0000E+00  0.0000E+00  0.0000E+00  9.0000E+01  9.0000E+01  9.0000E+01  0.0000E+00  2.4602E+00

  rolling  3.0239E+03  3.2595E+02 -4.6507E+02 -2.0554E+03 -1.6202E+03  0.0000E+00  2.8150E+03  3.9557E+02  0.0000E+00
 averages  5.6166E+03  0.0000E+00 -8.3880E+02 -2.0979E+04  1.6514E+03  0.0000E+00  0.0000E+00  1.8489E+04  0.0000E+00
           6.5704E+04  0.0000E+00  0.0000E+00  0.0000E+00  9.0000E+01  9.0000E+01  9.0000E+01  0.0000E+00  2.7138E+00
 ------------------------------------------------------------------------------------------------------------------------
       40  3.0237E+03  3.3652E+02 -6.1859E+02 -2.0864E+03 -1.6329E+03  0.0000E+00  2.6976E+03  4.0305E+02  0.0000E+00
  40.000f  5.4690E+03  0.0000E+00 -2.9229E+02 -2.0602E+04  1.6556E+03  0.0000E+00  0.0000E+00  1.8654E+04  0.0000E+00
   4.160s  6.5704E+04  0.0000E+00  0.0000E+00  0.0000E+00  9.0000E+01  9.0000E+01  9.0000E+01  0.0000E+00  2.6022E+00

  rolling  3.0241E+03  3.2702E+02 -4.8360E+02 -2.0596E+03 -1.6227E+03  0.0000E+00  2.8008E+03  3.9797E+02  0.0000E+00
 averages  5.6335E+03  0.0000E+00 -8.8808E+02 -2.0930E+04  1.6522E+03  0.0000E+00  0.0000E+00  1.8390E+04  0.0000E+00
           6.5704E+04  0.0000E+00  0.0000E+00  0.0000E+00  9.0000E+01  9.0000E+01  9.0000E+01  0.0000E+00  2.7389E+00
 ------------------------------------------------------------------------------------------------------------------------
       50  3.0245E+03  3.2937E+02 -5.7336E+02 -2.0656E+03 -1.6384E+03  0.0000E+00  2.7363E+03  3.9429E+02  0.0000E+00
  50.000f  5.5089E+03  0.0000E+00 -6.5817E+02 -2.0843E+04  1.6563E+03  0.0000E+00  0.0000E+00  1.8528E+04  0.0000E+00
   4.931s  6.5704E+04  0.0000E+00  0.0000E+00  0.0000E+00  9.0000E+01  9.0000E+01  9.0000E+01  0.0000E+00  2.6763E+00

  rolling  3.0242E+03  3.2829E+02 -5.0714E+02 -2.0650E+03 -1.6254E+03  0.0000E+00  2.7851E+03  3.9807E+02  0.0000E+00
 averages  5.5550E+03  0.0000E+00 -6.5511E+02 -2.0861E+04  1.6530E+03  0.0000E+00  0.0000E+00  1.8553E+04  0.0000E+00
           6.5704E+04  0.0000E+00  0.0000E+00  0.0000E+00  9.0000E+01  9.0000E+01  9.0000E+01  0.0000E+00  2.6673E+00
 ------------------------------------------------------------------------------------------------------------------------
       60  3.0234E+03  3.3836E+02 -7.0956E+02 -2.0847E+03 -1.6433E+03  0.0000E+00  2.6364E+03  3.8199E+02  0.0000E+00
  60.000f  5.3556E+03  0.0000E+00 -1.2618E+02 -2.0601E+04  1.6574E+03  0.0000E+00  0.0000E+00  1.8817E+04  0.0000E+00
   5.692s  6.5704E+04  0.0000E+00  0.0000E+00  0.0000E+00  9.0000E+01  9.0000E+01  9.0000E+01  0.0000E+00  2.5581E+00

  rolling  3.0243E+03  3.2850E+02 -5.2186E+02 -2.0653E+03 -1.6280E+03  0.0000E+00  2.7751E+03  3.9637E+02  0.0000E+00
 averages  5.5697E+03  0.0000E+00 -7.3206E+02 -2.0855E+04  1.6536E+03  0.0000E+00  0.0000E+00  1.8470E+04  0.0000E+00
           6.5704E+04  0.0000E+00  0.0000E+00  0.0000E+00  9.0000E+01  9.0000E+01  9.0000E+01  0.0000E+00  2.6956E+00
 ------------------------------------------------------------------------------------------------------------------------
       70  3.0247E+03  3.3055E+02 -6.7139E+02 -2.1088E+03 -1.6458E+03  0.0000E+00  2.7070E+03  3.7625E+02  0.0000E+00
  70.000f  4.9730E+03  0.0000E+00  7.1870E+02 -2.0257E+04  1.6585E+03  0.0000E+00  0.0000E+00  1.9317E+04  0.0000E+00
   6.464s  6.5704E+04  0.0000E+00  0.0000E+00  0.0000E+00  9.0000E+01  9.0000E+01  9.0000E+01  0.0000E+00  2.2062E+00

  rolling  3.0244E+03  3.2847E+02 -5.3659E+02 -2.0692E+03 -1.6304E+03  0.0000E+00  2.7693E+03  3.9382E+02  0.0000E+00
 averages  5.5129E+03  0.0000E+00 -6.0766E+02 -2.0802E+04  1.6542E+03  0.0000E+00  0.0000E+00  1.8540E+04  0.0000E+00
           6.5704E+04  0.0000E+00  0.0000E+00  0.0000E+00  9.0000E+01  9.0000E+01  9.0000E+01  0.0000E+00  2.6521E+00
 ------------------------------------------------------------------------------------------------------------------------
 ------------------------------------------------------------------------------------------------------------------------

     step     eng_tot    temp_tot     eng_cfg     eng_vdw     eng_cou     eng_bnd     eng_ang     eng_dih     eng_tet
 time          eng_pv    temp_rot     vir_cfg     vir_vdw     vir_cou     vir_bnd     vir_ang     vir_con     vir_tet
 cpu time      volume    temp_shl     eng_shl     vir_shl       alpha        beta       gamma     vir_pmf       press

 ------------------------------------------------------------------------------------------------------------------------
       80  3.0254E+03  3.2585E+02 -6.7530E+02 -2.1302E+03 -1.6482E+03  0.0000E+00  2.7263E+03  3.7681E+02  0.0000E+00
  80.000f  5.3538E+03  0.0000E+00 -6.8632E+02 -1.9964E+04  1.6603E+03  0.0000E+00  0.0000E+00  1.7617E+04  0.0000E+00
   7.238s  6.5704E+04  0.0000E+00  0.0000E+00  0.0000E+00  9.0000E+01  9.0000E+01  9.0000E+01  0.0000E+00  2.6600E+00

  rolling  3.0245E+03  3.2887E+02 -5.5862E+02 -2.0771E+03 -1.6325E+03  0.0000E+00  2.7594E+03  3.9157E+02  0.0000E+00
 averages  5.4664E+03  0.0000E+00 -5.1276E+02 -2.0694E+04  1.6549E+03  0.0000E+00  0.0000E+00  1.8526E+04  0.0000E+00
           6.5704E+04  0.0000E+00  0.0000E+00  0.0000E+00  9.0000E+01  9.0000E+01  9.0000E+01  0.0000E+00  2.6221E+00
 ------------------------------------------------------------------------------------------------------------------------
       90  3.0253E+03  3.2742E+02 -7.5312E+02 -2.1630E+03 -1.6495E+03  0.0000E+00  2.6761E+03  3.8335E+02  0.0000E+00
  90.000f  4.3557E+03  0.0000E+00  2.1583E+03 -1.9527E+04  1.6590E+03  0.0000E+00  0.0000E+00  2.0026E+04  0.0000E+00
   7.919s  6.5704E+04  0.0000E+00  0.0000E+00  0.0000E+00  9.0000E+01  9.0000E+01  9.0000E+01  0.0000E+00  1.6821E+00

  rolling  3.0246E+03  3.2868E+02 -5.7674E+02 -2.0850E+03 -1.6343E+03  0.0000E+00  2.7523E+03  3.9028E+02  0.0000E+00
 averages  5.4019E+03  0.0000E+00 -3.8411E+02 -2.0587E+04  1.6555E+03  0.0000E+00  0.0000E+00  1.8547E+04  0.0000E+00
           6.5704E+04  0.0000E+00  0.0000E+00  0.0000E+00  9.0000E+01  9.0000E+01  9.0000E+01  0.0000E+00  2.5759E+00
 ------------------------------------------------------------------------------------------------------------------------
      100  3.0260E+03  3.1649E+02 -7.0209E+02 -2.1666E+03 -1.6505E+03  0.0000E+00  2.7244E+03  3.9072E+02  0.0000E+00
 100.000f  4.9574E+03  0.0000E+00 -7.7491E+01 -1.9476E+04  1.6587E+03  0.0000E+00  0.0000E+00  1.7740E+04  0.0000E+00
   8.680s  6.5704E+04  0.0000E+00  0.0000E+00  0.0000E+00  9.0000E+01  9.0000E+01  9.0000E+01  0.0000E+00  2.3787E+00

  rolling  3.0247E+03  3.2794E+02 -5.9140E+02 -2.0934E+03 -1.6359E+03  0.0000E+00  2.7480E+03  3.8999E+02  0.0000E+00
 averages  5.3279E+03  0.0000E+00 -2.4563E+02 -2.0472E+04  1.6558E+03  0.0000E+00  0.0000E+00  1.8570E+04  0.0000E+00
           6.5704E+04  0.0000E+00  0.0000E+00  0.0000E+00  9.0000E+01  9.0000E+01  9.0000E+01  0.0000E+00  2.5222E+00
 ------------------------------------------------------------------------------------------------------------------------
      110  3.0259E+03  3.1265E+02 -7.3222E+02 -2.1494E+03 -1.6536E+03  0.0000E+00  2.6724E+03  3.9842E+02  0.0000E+00
 110.000f  4.5175E+03  0.0000E+00  9.4662E+02 -1.9678E+04  1.6599E+03  0.0000E+00  0.0000E+00  1.8965E+04  0.0000E+00
   9.452s  6.5704E+04  0.0000E+00  0.0000E+00  0.0000E+00  9.0000E+01  9.0000E+01  9.0000E+01  0.0000E+00  1.9939E+00

  rolling  3.0248E+03  3.2797E+02 -6.3028E+02 -2.1073E+03 -1.6395E+03  0.0000E+00  2.7260E+03  3.9051E+02  0.0000E+00
 averages  5.2304E+03  0.0000E+00 -6.7731E+01 -2.0287E+04  1.6567E+03  0.0000E+00  0.0000E+00  1.8563E+04  0.0000E+00
           6.5704E+04  0.0000E+00  0.0000E+00  0.0000E+00  9.0000E+01  9.0000E+01  9.0000E+01  0.0000E+00  2.4606E+00
 ------------------------------------------------------------------------------------------------------------------------
      120  3.0248E+03  3.1204E+02 -7.9952E+02 -2.1390E+03 -1.6584E+03  0.0000E+00  2.5985E+03  3.9942E+02  0.0000E+00
 120.000f  4.6230E+03  0.0000E+00  3.9574E+02 -1.9811E+04  1.6620E+03  0.0000E+00  0.0000E+00  1.8544E+04  0.0000E+00
  10.224s  6.5704E+04  0.0000E+00  0.0000E+00  0.0000E+00  9.0000E+01  9.0000E+01  9.0000E+01  0.0000E+00  2.1810E+00

  rolling  3.0249E+03  3.2635E+02 -6.5814E+02 -2.1165E+03 -1.6432E+03  0.0000E+00  2.7106E+03  3.9098E+02  0.0000E+00
 averages  5.0835E+03  0.0000E+00  2.0281E+02 -2.0158E+04  1.6578E+03  0.0000E+00  0.0000E+00  1.8703E+04  0.0000E+00
           6.5704E+04  0.0000E+00  0.0000E+00  0.0000E+00  9.0000E+01  9.0000E+01  9.0000E+01  0.0000E+00  2.3545E+00
 ------------------------------------------------------------------------------------------------------------------------
      130  3.0247E+03  3.0799E+02 -8.3181E+02 -2.1333E+03 -1.6621E+03  0.0000E+00  2.5686E+03  3.9495E+02  0.0000E+00
 130.000f  4.6374E+03  0.0000E+00  3.9322E+01 -1.9886E+04  1.6622E+03  0.0000E+00  0.0000E+00  1.8263E+04  0.0000E+00
  10.995s  6.5704E+04  0.0000E+00  0.0000E+00  0.0000E+00  9.0000E+01  9.0000E+01  9.0000E+01  0.0000E+00  2.2749E+00

  rolling  3.0250E+03  3.2416E+02 -6.8621E+02 -2.1201E+03 -1.6467E+03  0.0000E+00  2.6901E+03  3.9046E+02  0.0000E+00
 averages  5.0443E+03  0.0000E+00  1.1913E+02 -2.0103E+04  1.6586E+03  0.0000E+00  0.0000E+00  1.8564E+04  0.0000E+00
           6.5704E+04  0.0000E+00  0.0000E+00  0.0000E+00  9.0000E+01  9.0000E+01  9.0000E+01  0.0000E+00  2.3673E+00
 ------------------------------------------------------------------------------------------------------------------------
      140  3.0238E+03  3.0907E+02 -9.2116E+02 -2.1542E+03 -1.6648E+03  0.0000E+00  2.5121E+03  3.8579E+02  0.0000E+00
 140.000f  4.4577E+03  0.0000E+00  3.6804E+02 -1.9616E+04  1.6621E+03  0.0000E+00  0.0000E+00  1.8322E+04  0.0000E+00
  11.762s  6.5704E+04  0.0000E+00  0.0000E+00  0.0000E+00  9.0000E+01  9.0000E+01  9.0000E+01  0.0000E+00  2.1685E+00

  rolling  3.0250E+03  3.2183E+02 -7.1859E+02 -2.1278E+03 -1.6501E+03  0.0000E+00  2.6703E+03  3.8893E+02  0.0000E+00
 averages  4.9092E+03  0.0000E+00  3.0297E+02 -1.9993E+04  1.6594E+03  0.0000E+00  0.0000E+00  1.8636E+04  0.0000E+00
           6.5704E+04  0.0000E+00  0.0000E+00  0.0000E+00  9.0000E+01  9.0000E+01  9.0000E+01  0.0000E+00  2.2860E+00
 ------------------------------------------------------------------------------------------------------------------------
      150  3.0241E+03  3.0010E+02 -9.0301E+02 -2.1430E+03 -1.6662E+03  0.0000E+00  2.5240E+03  3.8230E+02  0.0000E+00
 150.000f  4.5484E+03  0.0000E+00 -3.2841E+02 -1.9748E+04  1.6576E+03  0.0000E+00  0.0000E+00  1.7762E+04  0.0000E+00
  12.434s  6.5704E+04  0.0000E+00  0.0000E+00  0.0000E+00  9.0000E+01  9.0000E+01  9.0000E+01  0.0000E+00  2.3442E+00

  rolling  3.0250E+03  3.1883E+02 -7.4873E+02 -2.1336E+03 -1.6530E+03  0.0000E+00  2.6505E+03  3.8744E+02  0.0000E+00
 averages  4.8546E+03  0.0000E+00  2.1611E+02 -1.9907E+04  1.6597E+03  0.0000E+00  0.0000E+00  1.8464E+04  0.0000E+00
           6.5704E+04  0.0000E+00  0.0000E+00  0.0000E+00  9.0000E+01  9.0000E+01  9.0000E+01  0.0000E+00  2.2939E+00
 ------------------------------------------------------------------------------------------------------------------------
 ------------------------------------------------------------------------------------------------------------------------

     step     eng_tot    temp_tot     eng_cfg     eng_vdw     eng_cou     eng_bnd     eng_ang     eng_dih     eng_tet
 time          eng_pv    temp_rot     vir_cfg     vir_vdw     vir_cou     vir_bnd     vir_ang     vir_con     vir_tet
 cpu time      volume    temp_shl     eng_shl     vir_shl       alpha        beta       gamma     vir_pmf       press

 ------------------------------------------------------------------------------------------------------------------------
      160  3.0242E+03  2.9235E+02 -8.9675E+02 -2.1233E+03 -1.6658E+03  0.0000E+00  2.5108E+03  3.8157E+02  0.0000E+00
 160.000f  4.2902E+03  0.0000E+00  5.0871E+01 -2.0011E+04  1.6537E+03  0.0000E+00  0.0000E+00  1.8408E+04  0.0000E+00
  13.200s  6.5704E+04  0.0000E+00  0.0000E+00  0.0000E+00  9.0000E+01  9.0000E+01  9.0000E+01  0.0000E+00  2.1546E+00

  rolling  3.0248E+03  3.1560E+02 -7.8070E+02 -2.1399E+03 -1.6555E+03  0.0000E+00  2.6279E+03  3.8682E+02  0.0000E+00
 averages  4.7131E+03  0.0000E+00  3.7218E+02 -1.9817E+04  1.6596E+03  0.0000E+00  0.0000E+00  1.8529E+04  0.0000E+00
           6.5704E+04  0.0000E+00  0.0000E+00  0.0000E+00  9.0000E+01  9.0000E+01  9.0000E+01  0.0000E+00  2.2156E+00
 ------------------------------------------------------------------------------------------------------------------------
      170  3.0246E+03  2.8392E+02 -8.8031E+02 -2.1469E+03 -1.6654E+03  0.0000E+00  2.5527E+03  3.7928E+02  0.0000E+00
 170.000f  4.5972E+03  0.0000E+00 -1.2710E+03 -1.9686E+04  1.6505E+03  0.0000E+00  0.0000E+00  1.6765E+04  0.0000E+00
  13.968s  6.5704E+04  0.0000E+00  0.0000E+00  0.0000E+00  9.0000E+01  9.0000E+01  9.0000E+01  0.0000E+00  2.5518E+00

  rolling  3.0247E+03  3.1176E+02 -8.0933E+02 -2.1444E+03 -1.6576E+03  0.0000E+00  2.6056E+03  3.8702E+02  0.0000E+00
 averages  4.6534E+03  0.0000E+00  2.6013E+02 -1.9750E+04  1.6590E+03  0.0000E+00  0.0000E+00  1.8351E+04  0.0000E+00
           6.5704E+04  0.0000E+00  0.0000E+00  0.0000E+00  9.0000E+01  9.0000E+01  9.0000E+01  0.0000E+00  2.2260E+00
 ------------------------------------------------------------------------------------------------------------------------
      180  3.0242E+03  2.8383E+02 -9.5183E+02 -2.2007E+03 -1.6659E+03  0.0000E+00  2.5423E+03  3.7244E+02  0.0000E+00
 180.000f  3.5873E+03  0.0000E+00  1.5396E+03 -1.8996E+04  1.6503E+03  0.0000E+00  0.0000E+00  1.8886E+04  0.0000E+00
  14.728s  6.5704E+04  0.0000E+00  0.0000E+00  0.0000E+00  9.0000E+01  9.0000E+01  9.0000E+01  0.0000E+00  1.5735E+00

  rolling  3.0245E+03  3.0757E+02 -8.3656E+02 -2.1486E+03 -1.6594E+03  0.0000E+00  2.5846E+03  3.8695E+02  0.0000E+00
 averages  4.5313E+03  0.0000E+00  3.2134E+02 -1.9689E+04  1.6581E+03  0.0000E+00  0.0000E+00  1.8352E+04  0.0000E+00
           6.5704E+04  0.0000E+00  0.0000E+00  0.0000E+00  9.0000E+01  9.0000E+01  9.0000E+01  0.0000E+00  2.1737E+00
 ------------------------------------------------------------------------------------------------------------------------
      190  3.0236E+03  2.8340E+02 -1.0174E+03 -2.1915E+03 -1.6666E+03  0.0000E+00  2.4722E+03  3.6852E+02  0.0000E+00
 190.000f  4.2025E+03  0.0000E+00 -5.2577E+02 -1.9113E+04  1.6518E+03  0.0000E+00  0.0000E+00  1.6935E+04  0.0000E+00
  15.410s  6.5704E+04  0.0000E+00  0.0000E+00  0.0000E+00  9.0000E+01  9.0000E+01  9.0000E+01  0.0000E+00  2.2888E+00

  rolling  3.0242E+03  3.0367E+02 -8.6811E+02 -2.1541E+03 -1.6612E+03  0.0000E+00  2.5613E+03  3.8589E+02  0.0000E+00
 averages  4.4330E+03  0.0000E+00  3.1326E+02 -1.9612E+04  1.6572E+03  0.0000E+00  0.0000E+00  1.8268E+04  0.0000E+00
           6.5704E+04  0.0000E+00  0.0000E+00  0.0000E+00  9.0000E+01  9.0000E+01  9.0000E+01  0.0000E+00  2.1475E+00
 ------------------------------------------------------------------------------------------------------------------------
      200  3.0223E+03  2.7996E+02 -1.0485E+03 -2.2217E+03 -1.6689E+03  0.0000E+00  2.4712E+03  3.7087E+02  0.0000E+00
 200.000f  3.5527E+03  0.0000E+00  1.1468E+03 -1.8711E+04  1.6566E+03  0.0000E+00  0.0000E+00  1.8201E+04  0.0000E+00
  16.179s  6.5704E+04  0.0000E+00  0.0000E+00  0.0000E+00  9.0000E+01  9.0000E+01  9.0000E+01  0.0000E+00  1.6814E+00

  rolling  3.0239E+03  3.0002E+02 -9.0276E+02 -2.1581E+03 -1.6629E+03  0.0000E+00  2.5342E+03  3.8406E+02  0.0000E+00
 averages  4.3534E+03  0.0000E+00  2.5298E+02 -1.9557E+04  1.6567E+03  0.0000E+00  0.0000E+00  1.8153E+04  0.0000E+00
           6.5704E+04  0.0000E+00  0.0000E+00  0.0000E+00  9.0000E+01  9.0000E+01  9.0000E+01  0.0000E+00  2.1413E+00
 ------------------------------------------------------------------------------------------------------------------------
      210  3.0212E+03  2.7885E+02 -1.0996E+03 -2.1882E+03 -1.6719E+03  0.0000E+00  2.3830E+03  3.7753E+02  0.0000E+00
 210.000f  3.8196E+03  0.0000E+00  1.3334E+02 -1.9137E+04  1.6614E+03  0.0000E+00  0.0000E+00  1.7609E+04  0.0000E+00
  16.949s  6.5704E+04  0.0000E+00  0.0000E+00  0.0000E+00  9.0000E+01  9.0000E+01  9.0000E+01  0.0000E+00  2.0256E+00

  rolling  3.0236E+03  2.9595E+02 -9.3241E+02 -2.1631E+03 -1.6648E+03  0.0000E+00  2.5135E+03  3.8203E+02  0.0000E+00
 averages  4.2365E+03  0.0000E+00  2.9727E+02 -1.9487E+04  1.6568E+03  0.0000E+00  0.0000E+00  1.8127E+04  0.0000E+00
           6.5704E+04  0.0000E+00  0.0000E+00  0.0000E+00  9.0000E+01  9.0000E+01  9.0000E+01  0.0000E+00  2.0957E+00
 ------------------------------------------------------------------------------------------------------------------------
      220  3.0210E+03  2.7372E+02 -1.1011E+03 -2.1956E+03 -1.6732E+03  0.0000E+00  2.3883E+03  3.7940E+02  0.0000E+00
 220.000f  3.4570E+03  0.0000E+00  9.4256E+02 -1.9029E+04  1.6648E+03  0.0000E+00  0.0000E+00  1.8306E+04  0.0000E+00
  17.620s  6.5704E+04  0.0000E+00  0.0000E+00  0.0000E+00  9.0000E+01  9.0000E+01  9.0000E+01  0.0000E+00  1.7060E+00

  rolling  3.0232E+03  2.9214E+02 -9.6363E+02 -2.1659E+03 -1.6664E+03  0.0000E+00  2.4887E+03  3.7998E+02  0.0000E+00
 averages  4.1682E+03  0.0000E+00  2.0521E+02 -1.9447E+04  1.6570E+03  0.0000E+00  0.0000E+00  1.7995E+04  0.0000E+00
           6.5704E+04  0.0000E+00  0.0000E+00  0.0000E+00  9.0000E+01  9.0000E+01  9.0000E+01  0.0000E+00  2.0994E+00
 ------------------------------------------------------------------------------------------------------------------------
      230  3.0207E+03  2.7217E+02 -1.1367E+03 -2.2295E+03 -1.6736E+03  0.0000E+00  2.3894E+03  3.7699E+02  0.0000E+00
 230.000f  3.5583E+03  0.0000E+00  4.4950E+02 -1.8556E+04  1.6666E+03  0.0000E+00  0.0000E+00  1.7339E+04  0.0000E+00
  18.386s  6.5704E+04  0.0000E+00  0.0000E+00  0.0000E+00  9.0000E+01  9.0000E+01  9.0000E+01  0.0000E+00  1.8661E+00

  rolling  3.0228E+03  2.8862E+02 -9.9590E+02 -2.1753E+03 -1.6677E+03  0.0000E+00  2.4690E+03  3.7807E+02  0.0000E+00
 averages  4.0263E+03  0.0000E+00  3.4596E+02 -1.9318E+04  1.6574E+03  0.0000E+00  0.0000E+00  1.8007E+04  0.0000E+00
           6.5704E+04  0.0000E+00  0.0000E+00  0.0000E+00  9.0000E+01  9.0000E+01  9.0000E+01  0.0000E+00  2.0243E+00
 ------------------------------------------------------------------------------------------------------------------------
 ------------------------------------------------------------------------------------------------------------------------

     step     eng_tot    temp_tot     eng_cfg     eng_vdw     eng_cou     eng_bnd     eng_ang     eng_dih     eng_tet
 time          eng_pv    temp_rot     vir_cfg     vir_vdw     vir_cou     vir_bnd     vir_ang     vir_con     vir_tet
 cpu time      volume    temp_shl     eng_shl     vir_shl       alpha        beta       gamma     vir_pmf       press

 ------------------------------------------------------------------------------------------------------------------------
      240  3.0191E+03  2.7855E+02 -1.2531E+03 -2.2299E+03 -1.6732E+03  0.0000E+00  2.2771E+03  3.7295E+02  0.0000E+00
 240.000f  3.0676E+03  0.0000E+00  1.9126E+03 -1.8527E+04  1.6663E+03  0.0000E+00  0.0000E+00  1.8773E+04  0.0000E+00
  19.065s  6.5704E+04  0.0000E+00  0.0000E+00  0.0000E+00  9.0000E+01  9.0000E+01  9.0000E+01  0.0000E+00  1.4044E+00

  rolling  3.0224E+03  2.8532E+02 -1.0278E+03 -2.1828E+03 -1.6687E+03  0.0000E+00  2.4472E+03  3.7655E+02  0.0000E+00
 averages  3.9376E+03  0.0000E+00  3.4023E+02 -1.9210E+04  1.6578E+03  0.0000E+00  0.0000E+00  1.7893E+04  0.0000E+00
           6.5704E+04  0.0000E+00  0.0000E+00  0.0000E+00  9.0000E+01  9.0000E+01  9.0000E+01  0.0000E+00  2.0017E+00
 ------------------------------------------------------------------------------------------------------------------------
      250  3.0200E+03  2.7026E+02 -1.2058E+03 -2.2410E+03 -1.6723E+03  0.0000E+00  2.3340E+03  3.7341E+02  0.0000E+00
 250.000f  3.0438E+03  0.0000E+00  1.6836E+03 -1.8344E+04  1.6643E+03  0.0000E+00  0.0000E+00  1.8363E+04  0.0000E+00
  19.836s  6.5704E+04  0.0000E+00  0.0000E+00  0.0000E+00  9.0000E+01  9.0000E+01  9.0000E+01  0.0000E+00  1.4225E+00

  rolling  3.0219E+03  2.8225E+02 -1.0589E+03 -2.1917E+03 -1.6694E+03  0.0000E+00  2.4268E+03  3.7551E+02  0.0000E+00
 averages  3.7659E+03  0.0000E+00  5.9818E+02 -1.9083E+04  1.6583E+03  0.0000E+00  0.0000E+00  1.8023E+04  0.0000E+00
           6.5704E+04  0.0000E+00  0.0000E+00  0.0000E+00  9.0000E+01  9.0000E+01  9.0000E+01  0.0000E+00  1.8892E+00
 ------------------------------------------------------------------------------------------------------------------------
      260  3.0193E+03  2.6751E+02 -1.2140E+03 -2.2252E+03 -1.6713E+03  0.0000E+00  2.3084E+03  3.7410E+02  0.0000E+00
 260.000f  3.3209E+03  0.0000E+00  6.8053E+02 -1.8532E+04  1.6631E+03  0.0000E+00  0.0000E+00  1.7549E+04  0.0000E+00
  20.504s  6.5704E+04  0.0000E+00  0.0000E+00  0.0000E+00  9.0000E+01  9.0000E+01  9.0000E+01  0.0000E+00  1.7510E+00

  rolling  3.0215E+03  2.7973E+02 -1.0920E+03 -2.2033E+03 -1.6700E+03  0.0000E+00  2.4066E+03  3.7473E+02  0.0000E+00
 averages  3.6671E+03  0.0000E+00  6.6072E+02 -1.8918E+04  1.6591E+03  0.0000E+00  0.0000E+00  1.7920E+04  0.0000E+00
           6.5704E+04  0.0000E+00  0.0000E+00  0.0000E+00  9.0000E+01  9.0000E+01  9.0000E+01  0.0000E+00  1.8487E+00
 ------------------------------------------------------------------------------------------------------------------------
      270  3.0185E+03  2.6984E+02 -1.2701E+03 -2.2729E+03 -1.6733E+03  0.0000E+00  2.3068E+03  3.6936E+02  0.0000E+00
 270.000f  2.4747E+03  0.0000E+00  3.1754E+03 -1.7879E+04  1.6636E+03  0.0000E+00  0.0000E+00  1.9391E+04  0.0000E+00
  21.275s  6.5704E+04  0.0000E+00  0.0000E+00  0.0000E+00  9.0000E+01  9.0000E+01  9.0000E+01  0.0000E+00  9.0043E-01

  rolling  3.0210E+03  2.7737E+02 -1.1227E+03 -2.2137E+03 -1.6706E+03  0.0000E+00  2.3878E+03  3.7390E+02  0.0000E+00
 averages  3.4949E+03  0.0000E+00  9.5927E+02 -1.8767E+04  1.6602E+03  0.0000E+00  0.0000E+00  1.8066E+04  0.0000E+00
           6.5704E+04  0.0000E+00  0.0000E+00  0.0000E+00  9.0000E+01  9.0000E+01  9.0000E+01  0.0000E+00  1.7273E+00
 ------------------------------------------------------------------------------------------------------------------------
      280  3.0190E+03  2.6230E+02 -1.2138E+03 -2.2469E+03 -1.6774E+03  0.0000E+00  2.3479E+03  3.6263E+02  0.0000E+00
 280.000f  3.2981E+03  0.0000E+00  4.7128E+02 -1.8209E+04  1.6655E+03  0.0000E+00  0.0000E+00  1.7015E+04  0.0000E+00
  22.042s  6.5704E+04  0.0000E+00  0.0000E+00  0.0000E+00  9.0000E+01  9.0000E+01  9.0000E+01  0.0000E+00  1.7851E+00

  rolling  3.0206E+03  2.7500E+02 -1.1486E+03 -2.2223E+03 -1.6716E+03  0.0000E+00  2.3724E+03  3.7293E+02  0.0000E+00
 averages  3.4034E+03  0.0000E+00  1.0292E+03 -1.8637E+04  1.6617E+03  0.0000E+00  0.0000E+00  1.8005E+04  0.0000E+00
           6.5704E+04  0.0000E+00  0.0000E+00  0.0000E+00  9.0000E+01  9.0000E+01  9.0000E+01  0.0000E+00  1.6854E+00
 ------------------------------------------------------------------------------------------------------------------------
      290  3.0185E+03  2.6842E+02 -1.2988E+03 -2.3150E+03 -1.6807E+03  0.0000E+00  2.3391E+03  3.5778E+02  0.0000E+00
 290.000f  2.2982E+03  0.0000E+00  3.5431E+03 -1.7290E+04  1.6677E+03  0.0000E+00  0.0000E+00  1.9165E+04  0.0000E+00
  22.709s  6.5704E+04  0.0000E+00  0.0000E+00  0.0000E+00  9.0000E+01  9.0000E+01  9.0000E+01  0.0000E+00  7.6202E-01

  rolling  3.0201E+03  2.7330E+02 -1.1769E+03 -2.2304E+03 -1.6729E+03  0.0000E+00  2.3545E+03  3.7194E+02  0.0000E+00
 averages  3.2756E+03  0.0000E+00  1.2369E+03 -1.8511E+04  1.6632E+03  0.0000E+00  0.0000E+00  1.8085E+04  0.0000E+00
           6.5704E+04  0.0000E+00  0.0000E+00  0.0000E+00  9.0000E+01  9.0000E+01  9.0000E+01  0.0000E+00  1.6005E+00
 ------------------------------------------------------------------------------------------------------------------------
      300  3.0179E+03  2.7004E+02 -1.3304E+03 -2.3145E+03 -1.6861E+03  0.0000E+00  2.3143E+03  3.5587E+02  0.0000E+00
 300.000f  2.9984E+03  0.0000E+00  1.4340E+03 -1.7294E+04  1.6712E+03  0.0000E+00  0.0000E+00  1.7057E+04  0.0000E+00
  23.474s  6.5704E+04  0.0000E+00  0.0000E+00  0.0000E+00  9.0000E+01  9.0000E+01  9.0000E+01  0.0000E+00  1.5077E+00

  rolling  3.0196E+03  2.7173E+02 -1.2014E+03 -2.2416E+03 -1.6745E+03  0.0000E+00  2.3439E+03  3.7071E+02  0.0000E+00
 averages  3.1634E+03  0.0000E+00  1.4165E+03 -1.8345E+04  1.6648E+03  0.0000E+00  0.0000E+00  1.8097E+04  0.0000E+00
           6.5704E+04  0.0000E+00  0.0000E+00  0.0000E+00  9.0000E+01  9.0000E+01  9.0000E+01  0.0000E+00  1.5264E+00
 ------------------------------------------------------------------------------------------------------------------------
      310  3.0187E+03  2.6027E+02 -1.2338E+03 -2.2860E+03 -1.6909E+03  0.0000E+00  2.3873E+03  3.5584E+02  0.0000E+00
 310.000f  2.2592E+03  0.0000E+00  3.4200E+03 -1.7633E+04  1.6760E+03  0.0000E+00  0.0000E+00  1.9376E+04  0.0000E+00
  24.245s  6.5704E+04  0.0000E+00  0.0000E+00  0.0000E+00  9.0000E+01  9.0000E+01  9.0000E+01  0.0000E+00  7.4426E-01

  rolling  3.0192E+03  2.7089E+02 -1.2283E+03 -2.2500E+03 -1.6763E+03  0.0000E+00  2.3293E+03  3.6882E+02  0.0000E+00
 averages  3.0620E+03  0.0000E+00  1.5950E+03 -1.8213E+04  1.6662E+03  0.0000E+00  0.0000E+00  1.8141E+04  0.0000E+00
           6.5704E+04  0.0000E+00  0.0000E+00  0.0000E+00  9.0000E+01  9.0000E+01  9.0000E+01  0.0000E+00  1.4580E+00
 ------------------------------------------------------------------------------------------------------------------------
 ------------------------------------------------------------------------------------------------------------------------

     step     eng_tot    temp_tot     eng_cfg     eng_vdw     eng_cou     eng_bnd     eng_ang     eng_dih     eng_tet
 time          eng_pv    temp_rot     vir_cfg     vir_vdw     vir_cou     vir_bnd     vir_ang     vir_con     vir_tet
 cpu time      volume    temp_shl     eng_shl     vir_shl       alpha        beta       gamma     vir_pmf       press

 ------------------------------------------------------------------------------------------------------------------------
      320  3.0171E+03  2.6870E+02 -1.3280E+03 -2.3052E+03 -1.6951E+03  0.0000E+00  2.3174E+03  3.5481E+02  0.0000E+00
 320.000f  3.1111E+03  0.0000E+00  1.0317E+03 -1.7412E+04  1.6831E+03  0.0000E+00  0.0000E+00  1.6760E+04  0.0000E+00
  24.924s  6.5704E+04  0.0000E+00  0.0000E+00  0.0000E+00  9.0000E+01  9.0000E+01  9.0000E+01  0.0000E+00  1.6377E+00

  rolling  3.0187E+03  2.7054E+02 -1.2551E+03 -2.2631E+03 -1.6784E+03  0.0000E+00  2.3199E+03  3.6642E+02  0.0000E+00
 averages  2.9332E+03  0.0000E+00  1.8822E+03 -1.8022E+04  1.6679E+03  0.0000E+00  0.0000E+00  1.8237E+04  0.0000E+00
           6.5704E+04  0.0000E+00  0.0000E+00  0.0000E+00  9.0000E+01  9.0000E+01  9.0000E+01  0.0000E+00  1.3555E+00
 ------------------------------------------------------------------------------------------------------------------------
      330  3.0169E+03  2.6784E+02 -1.3161E+03 -2.2916E+03 -1.7001E+03  0.0000E+00  2.3191E+03  3.5653E+02  0.0000E+00
 330.000f  2.4105E+03  0.0000E+00  3.1237E+03 -1.7580E+04  1.6912E+03  0.0000E+00  0.0000E+00  1.9013E+04  0.0000E+00
  25.682s  6.5704E+04  0.0000E+00  0.0000E+00  0.0000E+00  9.0000E+01  9.0000E+01  9.0000E+01  0.0000E+00  9.0362E-01

  rolling  3.0183E+03  2.6975E+02 -1.2717E+03 -2.2708E+03 -1.6808E+03  0.0000E+00  2.3157E+03  3.6417E+02  0.0000E+00
 averages  2.8977E+03  0.0000E+00  1.8968E+03 -1.7904E+04  1.6700E+03  0.0000E+00  0.0000E+00  1.8130E+04  0.0000E+00
           6.5704E+04  0.0000E+00  0.0000E+00  0.0000E+00  9.0000E+01  9.0000E+01  9.0000E+01  0.0000E+00  1.3446E+00
 ------------------------------------------------------------------------------------------------------------------------
      340  3.0166E+03  2.6742E+02 -1.3032E+03 -2.2543E+03 -1.7051E+03  0.0000E+00  2.2983E+03  3.5783E+02  0.0000E+00
 340.000f  2.9224E+03  0.0000E+00  1.6040E+03 -1.8085E+04  1.6970E+03  0.0000E+00  0.0000E+00  1.7992E+04  0.0000E+00
  26.362s  6.5704E+04  0.0000E+00  0.0000E+00  0.0000E+00  9.0000E+01  9.0000E+01  9.0000E+01  0.0000E+00  1.4291E+00

  rolling  3.0179E+03  2.6951E+02 -1.2887E+03 -2.2765E+03 -1.6838E+03  0.0000E+00  2.3092E+03  3.6238E+02  0.0000E+00
 averages  2.7782E+03  0.0000E+00  2.1915E+03 -1.7816E+04  1.6728E+03  0.0000E+00  0.0000E+00  1.8334E+04  0.0000E+00
           6.5704E+04  0.0000E+00  0.0000E+00  0.0000E+00  9.0000E+01  9.0000E+01  9.0000E+01  0.0000E+00  1.2402E+00
 ------------------------------------------------------------------------------------------------------------------------
      350  3.0154E+03  2.7626E+02 -1.3846E+03 -2.2825E+03 -1.7063E+03  0.0000E+00  2.2435E+03  3.6067E+02  0.0000E+00
 350.000f  2.8264E+03  0.0000E+00  2.1195E+03 -1.7708E+04  1.6985E+03  0.0000E+00  0.0000E+00  1.8129E+04  0.0000E+00
  27.131s  6.5704E+04  0.0000E+00  0.0000E+00  0.0000E+00  9.0000E+01  9.0000E+01  9.0000E+01  0.0000E+00  1.3155E+00

  rolling  3.0176E+03  2.6926E+02 -1.3000E+03 -2.2793E+03 -1.6871E+03  0.0000E+00  2.3055E+03  3.6098E+02  0.0000E+00
 averages  2.7974E+03  0.0000E+00  2.0869E+03 -1.7768E+04  1.6761E+03  0.0000E+00  0.0000E+00  1.8179E+04  0.0000E+00
           6.5704E+04  0.0000E+00  0.0000E+00  0.0000E+00  9.0000E+01  9.0000E+01  9.0000E+01  0.0000E+00  1.2748E+00
 ------------------------------------------------------------------------------------------------------------------------
      360  3.0161E+03  2.6919E+02 -1.2893E+03 -2.2456E+03 -1.7076E+03  0.0000E+00  2.3002E+03  3.6370E+02  0.0000E+00
 360.000f  2.9165E+03  0.0000E+00  1.7579E+03 -1.8208E+04  1.6988E+03  0.0000E+00  0.0000E+00  1.8267E+04  0.0000E+00
  27.800s  6.5704E+04  0.0000E+00  0.0000E+00  0.0000E+00  9.0000E+01  9.0000E+01  9.0000E+01  0.0000E+00  1.3887E+00

  rolling  3.0173E+03  2.6895E+02 -1.3049E+03 -2.2815E+03 -1.6906E+03  0.0000E+00  2.3074E+03  3.5983E+02  0.0000E+00
 averages  2.7391E+03  0.0000E+00  2.2303E+03 -1.7732E+04  1.6796E+03  0.0000E+00  0.0000E+00  1.8283E+04  0.0000E+00
           6.5704E+04  0.0000E+00  0.0000E+00  0.0000E+00  9.0000E+01  9.0000E+01  9.0000E+01  0.0000E+00  1.2226E+00
 ------------------------------------------------------------------------------------------------------------------------
      370  3.0154E+03  2.7427E+02 -1.3194E+03 -2.2473E+03 -1.7097E+03  0.0000E+00  2.2738E+03  3.6381E+02  0.0000E+00
 370.000f  2.8301E+03  0.0000E+00  2.1978E+03 -1.8182E+04  1.6983E+03  0.0000E+00  0.0000E+00  1.8682E+04  0.0000E+00
  28.566s  6.5704E+04  0.0000E+00  0.0000E+00  0.0000E+00  9.0000E+01  9.0000E+01  9.0000E+01  0.0000E+00  1.2734E+00

  rolling  3.0169E+03  2.6974E+02 -1.3161E+03 -2.2812E+03 -1.6943E+03  0.0000E+00  2.3004E+03  3.5904E+02  0.0000E+00
 averages  2.7616E+03  0.0000E+00  2.1717E+03 -1.7732E+04  1.6832E+03  0.0000E+00  0.0000E+00  1.8220E+04  0.0000E+00
           6.5704E+04  0.0000E+00  0.0000E+00  0.0000E+00  9.0000E+01  9.0000E+01  9.0000E+01  0.0000E+00  1.2489E+00
 ------------------------------------------------------------------------------------------------------------------------
      380  3.0155E+03  2.7627E+02 -1.3111E+03 -2.2895E+03 -1.7101E+03  0.0000E+00  2.3240E+03  3.6448E+02  0.0000E+00
 380.000f  2.6137E+03  0.0000E+00  2.9790E+03 -1.7658E+04  1.6972E+03  0.0000E+00  0.0000E+00  1.8940E+04  0.0000E+00
  29.239s  6.5704E+04  0.0000E+00  0.0000E+00  0.0000E+00  9.0000E+01  9.0000E+01  9.0000E+01  0.0000E+00  1.0166E+00

  rolling  3.0166E+03  2.7045E+02 -1.3208E+03 -2.2830E+03 -1.6977E+03  0.0000E+00  2.3011E+03  3.5891E+02  0.0000E+00
 averages  2.7097E+03  0.0000E+00  2.3509E+03 -1.7706E+04  1.6865E+03  0.0000E+00  0.0000E+00  1.8371E+04  0.0000E+00
           6.5704E+04  0.0000E+00  0.0000E+00  0.0000E+00  9.0000E+01  9.0000E+01  9.0000E+01  0.0000E+00  1.1918E+00
 ------------------------------------------------------------------------------------------------------------------------
      390  3.0160E+03  2.7340E+02 -1.2456E+03 -2.2580E+03 -1.7112E+03  0.0000E+00  2.3570E+03  3.6661E+02  0.0000E+00
 390.000f  3.3018E+03  0.0000E+00  9.5778E+02 -1.8073E+04  1.6989E+03  0.0000E+00  0.0000E+00  1.7332E+04  0.0000E+00
  30.009s  6.5704E+04  0.0000E+00  0.0000E+00  0.0000E+00  9.0000E+01  9.0000E+01  9.0000E+01  0.0000E+00  1.6983E+00

  rolling  3.0164E+03  2.7094E+02 -1.3178E+03 -2.2812E+03 -1.7009E+03  0.0000E+00  2.3047E+03  3.5949E+02  0.0000E+00
 averages  2.7735E+03  0.0000E+00  2.1950E+03 -1.7734E+04  1.6896E+03  0.0000E+00  0.0000E+00  1.8239E+04  0.0000E+00
           6.5704E+04  0.0000E+00  0.0000E+00  0.0000E+00  9.0000E+01  9.0000E+01  9.0000E+01  0.0000E+00  1.2497E+00
 ------------------------------------------------------------------------------------------------------------------------
 ------------------------------------------------------------------------------------------------------------------------

     step     eng_tot    temp_tot     eng_cfg     eng_vdw     eng_cou     eng_bnd     eng_ang     eng_dih     eng_tet
 time          eng_pv    temp_rot     vir_cfg     vir_vdw     vir_cou     vir_bnd     vir_ang     vir_con     vir_tet
 cpu time      volume    temp_shl     eng_shl     vir_shl       alpha        beta       gamma     vir_pmf       press

 ------------------------------------------------------------------------------------------------------------------------
      400  3.0151E+03  2.7943E+02 -1.2721E+03 -2.2767E+03 -1.7130E+03  0.0000E+00  2.3506E+03  3.6707E+02  0.0000E+00
 400.000f  2.3905E+03  0.0000E+00  3.9342E+03 -1.7834E+04  1.7030E+03  0.0000E+00  0.0000E+00  2.0065E+04  0.0000E+00
  30.767s  6.5704E+04  0.0000E+00  0.0000E+00  0.0000E+00  9.0000E+01  9.0000E+01  9.0000E+01  0.0000E+00  7.0776E-01

  rolling  3.0162E+03  2.7184E+02 -1.3138E+03 -2.2763E+03 -1.7037E+03  0.0000E+00  2.3057E+03  3.6047E+02  0.0000E+00
 averages  2.7537E+03  0.0000E+00  2.3139E+03 -1.7802E+04  1.6928E+03  0.0000E+00  0.0000E+00  1.8423E+04  0.0000E+00
           6.5704E+04  0.0000E+00  0.0000E+00  0.0000E+00  9.0000E+01  9.0000E+01  9.0000E+01  0.0000E+00  1.2150E+00
 ------------------------------------------------------------------------------------------------------------------------
      410  3.0160E+03  2.8039E+02 -1.2385E+03 -2.2751E+03 -1.7131E+03  0.0000E+00  2.3847E+03  3.6508E+02  0.0000E+00
 410.000f  3.5475E+03  0.0000E+00  6.1529E+02 -1.7879E+04  1.7047E+03  0.0000E+00  0.0000E+00  1.6790E+04  0.0000E+00
  31.447s  6.5704E+04  0.0000E+00  0.0000E+00  0.0000E+00  9.0000E+01  9.0000E+01  9.0000E+01  0.0000E+00  1.8695E+00

  rolling  3.0160E+03  2.7272E+02 -1.3044E+03 -2.2739E+03 -1.7062E+03  0.0000E+00  2.3141E+03  3.6154E+02  0.0000E+00
 averages  2.8161E+03  0.0000E+00  2.2022E+03 -1.7841E+04  1.6958E+03  0.0000E+00  0.0000E+00  1.8347E+04  0.0000E+00
           6.5704E+04  0.0000E+00  0.0000E+00  0.0000E+00  9.0000E+01  9.0000E+01  9.0000E+01  0.0000E+00  1.2604E+00
 ------------------------------------------------------------------------------------------------------------------------
      420  3.0164E+03  2.8248E+02 -1.2135E+03 -2.2733E+03 -1.7122E+03  0.0000E+00  2.4068E+03  3.6518E+02  0.0000E+00
 420.000f  2.5719E+03  0.0000E+00  3.7288E+03 -1.7900E+04  1.7064E+03  0.0000E+00  0.0000E+00  1.9922E+04  0.0000E+00
  32.219s  6.5704E+04  0.0000E+00  0.0000E+00  0.0000E+00  9.0000E+01  9.0000E+01  9.0000E+01  0.0000E+00  8.0188E-01

  rolling  3.0159E+03  2.7433E+02 -1.2977E+03 -2.2716E+03 -1.7081E+03  0.0000E+00  2.3195E+03  3.6256E+02  0.0000E+00
 averages  2.8655E+03  0.0000E+00  2.1600E+03 -1.7879E+04  1.6984E+03  0.0000E+00  0.0000E+00  1.8340E+04  0.0000E+00
           6.5704E+04  0.0000E+00  0.0000E+00  0.0000E+00  9.0000E+01  9.0000E+01  9.0000E+01  0.0000E+00  1.2870E+00
 ------------------------------------------------------------------------------------------------------------------------
      430  3.0161E+03  2.8546E+02 -1.1960E+03 -2.2337E+03 -1.7118E+03  0.0000E+00  2.3829E+03  3.6668E+02  0.0000E+00
 430.000f  3.5880E+03  0.0000E+00  8.9228E+02 -1.8451E+04  1.7067E+03  0.0000E+00  0.0000E+00  1.7637E+04  0.0000E+00
  32.894s  6.5704E+04  0.0000E+00  0.0000E+00  0.0000E+00  9.0000E+01  9.0000E+01  9.0000E+01  0.0000E+00  1.8108E+00

  rolling  3.0157E+03  2.7629E+02 -1.2900E+03 -2.2677E+03 -1.7095E+03  0.0000E+00  2.3237E+03  3.6361E+02  0.0000E+00
 averages  2.8704E+03  0.0000E+00  2.2734E+03 -1.7939E+04  1.7003E+03  0.0000E+00  0.0000E+00  1.8512E+04  0.0000E+00
           6.5704E+04  0.0000E+00  0.0000E+00  0.0000E+00  9.0000E+01  9.0000E+01  9.0000E+01  0.0000E+00  1.2622E+00
 ------------------------------------------------------------------------------------------------------------------------
      440  3.0165E+03  2.8499E+02 -1.1384E+03 -2.2647E+03 -1.7103E+03  0.0000E+00  2.4684E+03  3.6821E+02  0.0000E+00
 440.000f  2.9843E+03  0.0000E+00  2.8512E+03 -1.8056E+04  1.7056E+03  0.0000E+00  0.0000E+00  1.9202E+04  0.0000E+00
  33.658s  6.5704E+04  0.0000E+00  0.0000E+00  0.0000E+00  9.0000E+01  9.0000E+01  9.0000E+01  0.0000E+00  1.1259E+00

  rolling  3.0157E+03  2.7798E+02 -1.2747E+03 -2.2648E+03 -1.7103E+03  0.0000E+00  2.3358E+03  3.6463E+02  0.0000E+00
 averages  2.9726E+03  0.0000E+00  2.1026E+03 -1.7989E+04  1.7015E+03  0.0000E+00  0.0000E+00  1.8390E+04  0.0000E+00
           6.5704E+04  0.0000E+00  0.0000E+00  0.0000E+00  9.0000E+01  9.0000E+01  9.0000E+01  0.0000E+00  1.3341E+00
 ------------------------------------------------------------------------------------------------------------------------
      450  3.0164E+03  2.8797E+02 -1.1160E+03 -2.1947E+03 -1.7087E+03  0.0000E+00  2.4174E+03  3.7002E+02  0.0000E+00
 450.000f  4.0845E+03  0.0000E+00 -2.2360E+02 -1.9007E+04  1.7045E+03  0.0000E+00  0.0000E+00  1.7079E+04  0.0000E+00
  34.427s  6.5704E+04  0.0000E+00  0.0000E+00  0.0000E+00  9.0000E+01  9.0000E+01  9.0000E+01  0.0000E+00  2.2176E+00

  rolling  3.0156E+03  2.7982E+02 -1.2569E+03 -2.2615E+03 -1.7107E+03  0.0000E+00  2.3496E+03  3.6563E+02  0.0000E+00
 averages  3.0034E+03  0.0000E+00  2.1619E+03 -1.8045E+04  1.7022E+03  0.0000E+00  0.0000E+00  1.8505E+04  0.0000E+00
           6.5704E+04  0.0000E+00  0.0000E+00  0.0000E+00  9.0000E+01  9.0000E+01  9.0000E+01  0.0000E+00  1.3272E+00
 ------------------------------------------------------------------------------------------------------------------------
      460  3.0163E+03  2.9281E+02 -1.1113E+03 -2.2107E+03 -1.7078E+03  0.0000E+00  2.4364E+03  3.7077E+02  0.0000E+00
 460.000f  3.2476E+03  0.0000E+00  2.5599E+03 -1.8806E+04  1.7006E+03  0.0000E+00  0.0000E+00  1.9666E+04  0.0000E+00
  35.199s  6.5704E+04  0.0000E+00  0.0000E+00  0.0000E+00  9.0000E+01  9.0000E+01  9.0000E+01  0.0000E+00  1.2853E+00

  rolling  3.0156E+03  2.8217E+02 -1.2406E+03 -2.2540E+03 -1.7108E+03  0.0000E+00  2.3577E+03  3.6643E+02  0.0000E+00
 averages  3.1167E+03  0.0000E+00  1.9961E+03 -1.8158E+04  1.7026E+03  0.0000E+00  0.0000E+00  1.8451E+04  0.0000E+00
           6.5704E+04  0.0000E+00  0.0000E+00  0.0000E+00  9.0000E+01  9.0000E+01  9.0000E+01  0.0000E+00  1.4023E+00
 ------------------------------------------------------------------------------------------------------------------------
      470  3.0158E+03  2.9891E+02 -1.1188E+03 -2.1785E+03 -1.7082E+03  0.0000E+00  2.3963E+03  3.7155E+02  0.0000E+00
 470.000f  4.2937E+03  0.0000E+00 -2.7532E+02 -1.9271E+04  1.6972E+03  0.0000E+00  0.0000E+00  1.7298E+04  0.0000E+00
  35.866s  6.5704E+04  0.0000E+00  0.0000E+00  0.0000E+00  9.0000E+01  9.0000E+01  9.0000E+01  0.0000E+00  2.3168E+00

  rolling  3.0157E+03  2.8430E+02 -1.2185E+03 -2.2506E+03 -1.7107E+03  0.0000E+00  2.3756E+03  3.6715E+02  0.0000E+00
 averages  3.1626E+03  0.0000E+00  2.0388E+03 -1.8219E+04  1.7025E+03  0.0000E+00  0.0000E+00  1.8555E+04  0.0000E+00
           6.5704E+04  0.0000E+00  0.0000E+00  0.0000E+00  9.0000E+01  9.0000E+01  9.0000E+01  0.0000E+00  1.4033E+00
 ------------------------------------------------------------------------------------------------------------------------
 ------------------------------------------------------------------------------------------------------------------------

     step     eng_tot    temp_tot     eng_cfg     eng_vdw     eng_cou     eng_bnd     eng_ang     eng_dih     eng_tet
 time          eng_pv    temp_rot     vir_cfg     vir_vdw     vir_cou     vir_bnd     vir_ang     vir_con     vir_tet
 cpu time      volume    temp_shl     eng_shl     vir_shl       alpha        beta       gamma     vir_pmf       press

 ------------------------------------------------------------------------------------------------------------------------
      480  3.0164E+03  2.9893E+02 -1.0597E+03 -2.1734E+03 -1.7076E+03  0.0000E+00  2.4488E+03  3.7242E+02  0.0000E+00
 480.000f  3.9471E+03  0.0000E+00  9.4278E+02 -1.9350E+04  1.6943E+03  0.0000E+00  0.0000E+00  1.8598E+04  0.0000E+00
  36.637s  6.5704E+04  0.0000E+00  0.0000E+00  0.0000E+00  9.0000E+01  9.0000E+01  9.0000E+01  0.0000E+00  1.8933E+00

  rolling  3.0158E+03  2.8664E+02 -1.1954E+03 -2.2393E+03 -1.7105E+03  0.0000E+00  2.3865E+03  3.6793E+02  0.0000E+00
 averages  3.3586E+03  0.0000E+00  1.6448E+03 -1.8385E+04  1.7024E+03  0.0000E+00  0.0000E+00  1.8327E+04  0.0000E+00
           6.5704E+04  0.0000E+00  0.0000E+00  0.0000E+00  9.0000E+01  9.0000E+01  9.0000E+01  0.0000E+00  1.5577E+00
 ------------------------------------------------------------------------------------------------------------------------
      490  3.0169E+03  2.9832E+02 -9.9376E+02 -2.1605E+03 -1.7069E+03  0.0000E+00  2.4998E+03  3.7383E+02  0.0000E+00
 490.000f  4.1372E+03  0.0000E+00  5.3808E+02 -1.9532E+04  1.6913E+03  0.0000E+00  0.0000E+00  1.8379E+04  0.0000E+00
  37.403s  6.5704E+04  0.0000E+00  0.0000E+00  0.0000E+00  9.0000E+01  9.0000E+01  9.0000E+01  0.0000E+00  2.0295E+00

  rolling  3.0159E+03  2.8884E+02 -1.1681E+03 -2.2305E+03 -1.7102E+03  0.0000E+00  2.4038E+03  3.6874E+02  0.0000E+00
 averages  3.4002E+03  0.0000E+00  1.7193E+03 -1.8518E+04  1.7018E+03  0.0000E+00  0.0000E+00  1.8535E+04  0.0000E+00
           6.5704E+04  0.0000E+00  0.0000E+00  0.0000E+00  9.0000E+01  9.0000E+01  9.0000E+01  0.0000E+00  1.5482E+00
 ------------------------------------------------------------------------------------------------------------------------
      500  3.0177E+03  3.0105E+02 -9.6275E+02 -2.1578E+03 -1.7059E+03  0.0000E+00  2.5264E+03  3.7457E+02  0.0000E+00
 500.000f  4.5346E+03  0.0000E+00 -4.1565E+02 -1.9557E+04  1.6868E+03  0.0000E+00  0.0000E+00  1.7455E+04  0.0000E+00
  38.076s  6.5704E+04  0.0000E+00  0.0000E+00  0.0000E+00  9.0000E+01  9.0000E+01  9.0000E+01  0.0000E+00  2.3815E+00

  rolling  3.0160E+03  2.9110E+02 -1.1392E+03 -2.2195E+03 -1.7096E+03  0.0000E+00  2.4203E+03  3.6954E+02  0.0000E+00
 averages  3.6032E+03  0.0000E+00  1.3177E+03 -1.8681E+04  1.7006E+03  0.0000E+00  0.0000E+00  1.8298E+04  0.0000E+00
           6.5704E+04  0.0000E+00  0.0000E+00  0.0000E+00  9.0000E+01  9.0000E+01  9.0000E+01  0.0000E+00  1.7047E+00
 ------------------------------------------------------------------------------------------------------------------------
      510  3.0177E+03  3.0520E+02 -9.4805E+02 -2.1817E+03 -1.7041E+03  0.0000E+00  2.5650E+03  3.7276E+02  0.0000E+00
 510.000f  4.0963E+03  0.0000E+00  1.1649E+03 -1.9245E+04  1.6834E+03  0.0000E+00  0.0000E+00  1.8726E+04  0.0000E+00
  38.847s  6.5704E+04  0.0000E+00  0.0000E+00  0.0000E+00  9.0000E+01  9.0000E+01  9.0000E+01  0.0000E+00  1.8626E+00

  rolling  3.0162E+03  2.9370E+02 -1.1121E+03 -2.2100E+03 -1.7088E+03  0.0000E+00  2.4364E+03  3.7029E+02  0.0000E+00
 averages  3.6868E+03  0.0000E+00  1.2871E+03 -1.8819E+04  1.6987E+03  0.0000E+00  0.0000E+00  1.8408E+04  0.0000E+00
           6.5704E+04  0.0000E+00  0.0000E+00  0.0000E+00  9.0000E+01  9.0000E+01  9.0000E+01  0.0000E+00  1.7346E+00
 ------------------------------------------------------------------------------------------------------------------------
      520  3.0186E+03  3.0776E+02 -9.1665E+02 -2.1476E+03 -1.6999E+03  0.0000E+00  2.5590E+03  3.7186E+02  0.0000E+00
 520.000f  4.8503E+03  0.0000E+00 -8.6615E+02 -1.9686E+04  1.6782E+03  0.0000E+00  0.0000E+00  1.7141E+04  0.0000E+00
  39.618s  6.5704E+04  0.0000E+00  0.0000E+00  0.0000E+00  9.0000E+01  9.0000E+01  9.0000E+01  0.0000E+00  2.5881E+00

  rolling  3.0164E+03  2.9619E+02 -1.0825E+03 -2.1979E+03 -1.7077E+03  0.0000E+00  2.4522E+03  3.7095E+02  0.0000E+00
 averages  3.8589E+03  0.0000E+00  9.9265E+02 -1.8993E+04  1.6962E+03  0.0000E+00  0.0000E+00  1.8289E+04  0.0000E+00
           6.5704E+04  0.0000E+00  0.0000E+00  0.0000E+00  9.0000E+01  9.0000E+01  9.0000E+01  0.0000E+00  1.8555E+00
 ------------------------------------------------------------------------------------------------------------------------
      530  3.0192E+03  3.0835E+02 -8.6716E+02 -2.1889E+03 -1.6958E+03  0.0000E+00  2.6418E+03  3.7569E+02  0.0000E+00
 530.000f  4.0092E+03  0.0000E+00  1.8374E+03 -1.9130E+04  1.6723E+03  0.0000E+00  0.0000E+00  1.9295E+04  0.0000E+00
  40.395s  6.5704E+04  0.0000E+00  0.0000E+00  0.0000E+00  9.0000E+01  9.0000E+01  9.0000E+01  0.0000E+00  1.6521E+00

  rolling  3.0167E+03  2.9877E+02 -1.0530E+03 -2.1893E+03 -1.7063E+03  0.0000E+00  2.4709E+03  3.7169E+02  0.0000E+00
 averages  3.9761E+03  0.0000E+00  8.6751E+02 -1.9115E+04  1.6930E+03  0.0000E+00  0.0000E+00  1.8290E+04  0.0000E+00
           6.5704E+04  0.0000E+00  0.0000E+00  0.0000E+00  9.0000E+01  9.0000E+01  9.0000E+01  0.0000E+00  1.9183E+00
 ------------------------------------------------------------------------------------------------------------------------
      540  3.0194E+03  3.1062E+02 -8.3896E+02 -2.1035E+03 -1.6937E+03  0.0000E+00  2.5780E+03  3.8026E+02  0.0000E+00
 540.000f  5.3165E+03  0.0000E+00 -1.8790E+03 -2.0265E+04  1.6714E+03  0.0000E+00  0.0000E+00  1.6714E+04  0.0000E+00
  41.083s  6.5704E+04  0.0000E+00  0.0000E+00  0.0000E+00  9.0000E+01  9.0000E+01  9.0000E+01  0.0000E+00  2.9617E+00

  rolling  3.0170E+03  3.0106E+02 -1.0201E+03 -2.1789E+03 -1.7046E+03  0.0000E+00  2.4905E+03  3.7282E+02  0.0000E+00
 averages  4.1332E+03  0.0000E+00  6.1723E+02 -1.9262E+04  1.6895E+03  0.0000E+00  0.0000E+00  1.8189E+04  0.0000E+00
           6.5704E+04  0.0000E+00  0.0000E+00  0.0000E+00  9.0000E+01  9.0000E+01  9.0000E+01  0.0000E+00  2.0224E+00
 ------------------------------------------------------------------------------------------------------------------------
      550  3.0195E+03  3.1646E+02 -8.5174E+02 -2.1490E+03 -1.6916E+03  0.0000E+00  2.6069E+03  3.8190E+02  0.0000E+00
 550.000f  4.0740E+03  0.0000E+00  2.1226E+03 -1.9677E+04  1.6722E+03  0.0000E+00  0.0000E+00  2.0127E+04  0.0000E+00
  41.849s  6.5704E+04  0.0000E+00  0.0000E+00  0.0000E+00  9.0000E+01  9.0000E+01  9.0000E+01  0.0000E+00  1.6132E+00

  rolling  3.0173E+03  3.0388E+02 -9.9308E+02 -2.1688E+03 -1.7029E+03  0.0000E+00  2.5046E+03  3.7405E+02  0.0000E+00
 averages  4.2422E+03  0.0000E+00  5.2147E+02 -1.9402E+04  1.6862E+03  0.0000E+00  0.0000E+00  1.8237E+04  0.0000E+00
           6.5704E+04  0.0000E+00  0.0000E+00  0.0000E+00  9.0000E+01  9.0000E+01  9.0000E+01  0.0000E+00  2.0766E+00
 ------------------------------------------------------------------------------------------------------------------------
 ------------------------------------------------------------------------------------------------------------------------

     step     eng_tot    temp_tot     eng_cfg     eng_vdw     eng_cou     eng_bnd     eng_ang     eng_dih     eng_tet
 time          eng_pv    temp_rot     vir_cfg     vir_vdw     vir_cou     vir_bnd     vir_ang     vir_con     vir_tet
 cpu time      volume    temp_shl     eng_shl     vir_shl       alpha        beta       gamma     vir_pmf       press

 ------------------------------------------------------------------------------------------------------------------------
      560  3.0191E+03  3.2759E+02 -9.2550E+02 -2.1258E+03 -1.6905E+03  0.0000E+00  2.5111E+03  3.7973E+02  0.0000E+00
 560.000f  5.4184E+03  0.0000E+00 -1.5380E+03 -1.9999E+04  1.6749E+03  0.0000E+00  0.0000E+00  1.6786E+04  0.0000E+00
  42.623s  6.5704E+04  0.0000E+00  0.0000E+00  0.0000E+00  9.0000E+01  9.0000E+01  9.0000E+01  0.0000E+00  2.9692E+00

  rolling  3.0176E+03  3.0675E+02 -9.6742E+02 -2.1633E+03 -1.7012E+03  0.0000E+00  2.5219E+03  3.7512E+02  0.0000E+00
 averages  4.3405E+03  0.0000E+00  4.5702E+02 -1.9483E+04  1.6833E+03  0.0000E+00  0.0000E+00  1.8256E+04  0.0000E+00
           6.5704E+04  0.0000E+00  0.0000E+00  0.0000E+00  9.0000E+01  9.0000E+01  9.0000E+01  0.0000E+00  2.1203E+00
 ------------------------------------------------------------------------------------------------------------------------
      570  3.0192E+03  3.2751E+02 -8.8450E+02 -2.1421E+03 -1.6913E+03  0.0000E+00  2.5719E+03  3.7701E+02  0.0000E+00
 570.000f  4.4294E+03  0.0000E+00  1.5476E+03 -1.9789E+04  1.6804E+03  0.0000E+00  0.0000E+00  1.9656E+04  0.0000E+00
  43.305s  6.5704E+04  0.0000E+00  0.0000E+00  0.0000E+00  9.0000E+01  9.0000E+01  9.0000E+01  0.0000E+00  1.8952E+00

  rolling  3.0180E+03  3.0972E+02 -9.4427E+02 -2.1565E+03 -1.6995E+03  0.0000E+00  2.5359E+03  3.7576E+02  0.0000E+00
 averages  4.4865E+03  0.0000E+00  2.4703E+02 -1.9577E+04  1.6812E+03  0.0000E+00  0.0000E+00  1.8143E+04  0.0000E+00
           6.5704E+04  0.0000E+00  0.0000E+00  0.0000E+00  9.0000E+01  9.0000E+01  9.0000E+01  0.0000E+00  2.2155E+00
 ------------------------------------------------------------------------------------------------------------------------
      580  3.0200E+03  3.2416E+02 -8.1437E+02 -2.0942E+03 -1.6908E+03  0.0000E+00  2.5932E+03  3.7748E+02  0.0000E+00
 580.000f  5.3206E+03  0.0000E+00 -1.0941E+03 -2.0435E+04  1.6839E+03  0.0000E+00  0.0000E+00  1.7657E+04  0.0000E+00
  44.079s  6.5704E+04  0.0000E+00  0.0000E+00  0.0000E+00  9.0000E+01  9.0000E+01  9.0000E+01  0.0000E+00  2.7893E+00

  rolling  3.0184E+03  3.1241E+02 -9.2038E+02 -2.1516E+03 -1.6978E+03  0.0000E+00  2.5528E+03  3.7623E+02  0.0000E+00
 averages  4.5026E+03  0.0000E+00  4.1422E+02 -1.9645E+04  1.6799E+03  0.0000E+00  0.0000E+00  1.8380E+04  0.0000E+00
           6.5704E+04  0.0000E+00  0.0000E+00  0.0000E+00  9.0000E+01  9.0000E+01  9.0000E+01  0.0000E+00  2.1773E+00
 ------------------------------------------------------------------------------------------------------------------------
      590  3.0204E+03  3.2299E+02 -7.7371E+02 -2.1246E+03 -1.6902E+03  0.0000E+00  2.6609E+03  3.8026E+02  0.0000E+00
 590.000f  4.8408E+03  0.0000E+00  4.0466E+02 -2.0031E+04  1.6864E+03  0.0000E+00  0.0000E+00  1.8750E+04  0.0000E+00
  44.846s  6.5704E+04  0.0000E+00  0.0000E+00  0.0000E+00  9.0000E+01  9.0000E+01  9.0000E+01  0.0000E+00  2.2592E+00

  rolling  3.0188E+03  3.1470E+02 -8.9499E+02 -2.1437E+03 -1.6961E+03  0.0000E+00  2.5681E+03  3.7679E+02  0.0000E+00
 averages  4.6720E+03  0.0000E+00  1.0444E+02 -1.9752E+04  1.6792E+03  0.0000E+00  0.0000E+00  1.8177E+04  0.0000E+00
           6.5704E+04  0.0000E+00  0.0000E+00  0.0000E+00  9.0000E+01  9.0000E+01  9.0000E+01  0.0000E+00  2.3021E+00
 ------------------------------------------------------------------------------------------------------------------------
      600  3.0214E+03  3.2313E+02 -7.5177E+02 -2.1142E+03 -1.6908E+03  0.0000E+00  2.6696E+03  3.8354E+02  0.0000E+00
 600.000f  5.2494E+03  0.0000E+00 -7.4797E+02 -2.0186E+04  1.6897E+03  0.0000E+00  0.0000E+00  1.7749E+04  0.0000E+00
  45.532s  6.5704E+04  0.0000E+00  0.0000E+00  0.0000E+00  9.0000E+01  9.0000E+01  9.0000E+01  0.0000E+00  2.6613E+00

  rolling  3.0192E+03  3.1693E+02 -8.7233E+02 -2.1401E+03 -1.6945E+03  0.0000E+00  2.5848E+03  3.7750E+02  0.0000E+00
 averages  4.6927E+03  0.0000E+00  2.2909E+02 -1.9803E+04  1.6791E+03  0.0000E+00  0.0000E+00  1.8353E+04  0.0000E+00
           6.5704E+04  0.0000E+00  0.0000E+00  0.0000E+00  9.0000E+01  9.0000E+01  9.0000E+01  0.0000E+00  2.2753E+00
 ------------------------------------------------------------------------------------------------------------------------
      610  3.0219E+03  3.2752E+02 -7.8172E+02 -2.1113E+03 -1.6893E+03  0.0000E+00  2.6299E+03  3.8903E+02  0.0000E+00
 610.000f  4.9583E+03  0.0000E+00  2.7017E+02 -2.0250E+04  1.6870E+03  0.0000E+00  0.0000E+00  1.8833E+04  0.0000E+00
  46.310s  6.5704E+04  0.0000E+00  0.0000E+00  0.0000E+00  9.0000E+01  9.0000E+01  9.0000E+01  0.0000E+00  2.3397E+00

  rolling  3.0196E+03  3.1919E+02 -8.5412E+02 -2.1336E+03 -1.6931E+03  0.0000E+00  2.5938E+03  3.7876E+02  0.0000E+00
 averages  4.8224E+03  0.0000E+00  1.5887E+01 -1.9895E+04  1.6795E+03  0.0000E+00  0.0000E+00  1.8232E+04  0.0000E+00
           6.5704E+04  0.0000E+00  0.0000E+00  0.0000E+00  9.0000E+01  9.0000E+01  9.0000E+01  0.0000E+00  2.3663E+00
 ------------------------------------------------------------------------------------------------------------------------
      620  3.0217E+03  3.2757E+02 -7.7296E+02 -2.1364E+03 -1.6862E+03  0.0000E+00  2.6500E+03  3.9963E+02  0.0000E+00
 620.000f  4.8635E+03  0.0000E+00  5.8352E+02 -1.9919E+04  1.6833E+03  0.0000E+00  0.0000E+00  1.8819E+04  0.0000E+00
  46.998s  6.5704E+04  0.0000E+00  0.0000E+00  0.0000E+00  9.0000E+01  9.0000E+01  9.0000E+01  0.0000E+00  2.2311E+00

  rolling  3.0200E+03  3.2086E+02 -8.3412E+02 -2.1301E+03 -1.6916E+03  0.0000E+00  2.6064E+03  3.8111E+02  0.0000E+00
 averages  4.8216E+03  0.0000E+00  1.6736E+02 -1.9950E+04  1.6799E+03  0.0000E+00  0.0000E+00  1.8437E+04  0.0000E+00
           6.5704E+04  0.0000E+00  0.0000E+00  0.0000E+00  9.0000E+01  9.0000E+01  9.0000E+01  0.0000E+00  2.3260E+00
 ------------------------------------------------------------------------------------------------------------------------
      630  3.0226E+03  3.2276E+02 -7.1792E+02 -2.1022E+03 -1.6860E+03  0.0000E+00  2.6669E+03  4.0336E+02  0.0000E+00
 630.000f  5.4119E+03  0.0000E+00 -1.1536E+03 -2.0381E+04  1.6843E+03  0.0000E+00  0.0000E+00  1.7544E+04  0.0000E+00
  47.766s  6.5704E+04  0.0000E+00  0.0000E+00  0.0000E+00  9.0000E+01  9.0000E+01  9.0000E+01  0.0000E+00  2.7996E+00

  rolling  3.0204E+03  3.2211E+02 -8.1467E+02 -2.1246E+03 -1.6905E+03  0.0000E+00  2.6164E+03  3.8402E+02  0.0000E+00
 averages  4.9454E+03  0.0000E+00 -7.9115E+01 -2.0032E+04  1.6808E+03  0.0000E+00  0.0000E+00  1.8272E+04  0.0000E+00
           6.5704E+04  0.0000E+00  0.0000E+00  0.0000E+00  9.0000E+01  9.0000E+01  9.0000E+01  0.0000E+00  2.4210E+00
 ------------------------------------------------------------------------------------------------------------------------
 ------------------------------------------------------------------------------------------------------------------------

     step     eng_tot    temp_tot     eng_cfg     eng_vdw     eng_cou     eng_bnd     eng_ang     eng_dih     eng_tet
 time          eng_pv    temp_rot     vir_cfg     vir_vdw     vir_cou     vir_bnd     vir_ang     vir_con     vir_tet
 cpu time      volume    temp_shl     eng_shl     vir_shl       alpha        beta       gamma     vir_pmf       press

 ------------------------------------------------------------------------------------------------------------------------
      640  3.0226E+03  3.2593E+02 -7.5529E+02 -2.1377E+03 -1.6844E+03  0.0000E+00  2.6677E+03  3.9910E+02  0.0000E+00
 640.000f  4.4078E+03  0.0000E+00  1.9158E+03 -1.9930E+04  1.6845E+03  0.0000E+00  0.0000E+00  2.0162E+04  0.0000E+00
  48.539s  6.5704E+04  0.0000E+00  0.0000E+00  0.0000E+00  9.0000E+01  9.0000E+01  9.0000E+01  0.0000E+00  1.7554E+00

  rolling  3.0208E+03  3.2363E+02 -8.0360E+02 -2.1229E+03 -1.6895E+03  0.0000E+00  2.6225E+03  3.8632E+02  0.0000E+00
 averages  4.9146E+03  0.0000E+00  1.2772E+02 -2.0066E+04  1.6821E+03  0.0000E+00  0.0000E+00  1.8512E+04  0.0000E+00
           6.5704E+04  0.0000E+00  0.0000E+00  0.0000E+00  9.0000E+01  9.0000E+01  9.0000E+01  0.0000E+00  2.3604E+00
 ------------------------------------------------------------------------------------------------------------------------
      650  3.0227E+03  3.2845E+02 -7.9229E+02 -2.1406E+03 -1.6839E+03  0.0000E+00  2.6374E+03  3.9479E+02  0.0000E+00
 650.000f  5.4930E+03  0.0000E+00 -1.3161E+03 -1.9896E+04  1.6852E+03  0.0000E+00  0.0000E+00  1.6894E+04  0.0000E+00
  49.312s  6.5704E+04  0.0000E+00  0.0000E+00  0.0000E+00  9.0000E+01  9.0000E+01  9.0000E+01  0.0000E+00  2.8984E+00

  rolling  3.0211E+03  3.2461E+02 -7.9256E+02 -2.1227E+03 -1.6887E+03  0.0000E+00  2.6310E+03  3.8780E+02  0.0000E+00
 averages  4.9775E+03  0.0000E+00  2.4773E+01 -2.0079E+04  1.6834E+03  0.0000E+00  0.0000E+00  1.8420E+04  0.0000E+00
           6.5704E+04  0.0000E+00  0.0000E+00  0.0000E+00  9.0000E+01  9.0000E+01  9.0000E+01  0.0000E+00  2.4035E+00
 ------------------------------------------------------------------------------------------------------------------------
      660  3.0233E+03  3.2367E+02 -7.5802E+02 -2.1233E+03 -1.6869E+03  0.0000E+00  2.6582E+03  3.9400E+02  0.0000E+00
 660.000f  4.7028E+03  0.0000E+00  9.0213E+02 -2.0120E+04  1.6908E+03  0.0000E+00  0.0000E+00  1.9332E+04  0.0000E+00
  49.994s  6.5704E+04  0.0000E+00  0.0000E+00  0.0000E+00  9.0000E+01  9.0000E+01  9.0000E+01  0.0000E+00  2.0913E+00

  rolling  3.0215E+03  3.2528E+02 -7.8436E+02 -2.1236E+03 -1.6881E+03  0.0000E+00  2.6383E+03  3.8909E+02  0.0000E+00
 averages  4.9907E+03  0.0000E+00  4.5432E+01 -2.0078E+04  1.6848E+03  0.0000E+00  0.0000E+00  1.8438E+04  0.0000E+00
           6.5704E+04  0.0000E+00  0.0000E+00  0.0000E+00  9.0000E+01  9.0000E+01  9.0000E+01  0.0000E+00  2.4012E+00
 ------------------------------------------------------------------------------------------------------------------------
      670  3.0230E+03  3.2372E+02 -7.8231E+02 -2.0988E+03 -1.6895E+03  0.0000E+00  2.6131E+03  3.9293E+02  0.0000E+00
 670.000f  5.4176E+03  0.0000E+00 -1.3126E+03 -2.0465E+04  1.6967E+03  0.0000E+00  0.0000E+00  1.7455E+04  0.0000E+00
[...]
    6.7250  1.849760E+00  1.304000E+00
    6.7750  2.733837E+00  1.316000E+00
    6.8250  2.693928E+00  1.328000E+00
    6.8750  1.769924E+00  1.336000E+00
    6.9250  8.722291E-01  1.340000E+00
    6.9750  1.719538E+00  1.348000E+00
    7.0250  1.695148E+00  1.356000E+00
    7.0750  1.671273E+00  1.364000E+00
    7.1250  4.119746E+00  1.384000E+00
    7.1750  1.625011E+00  1.392000E+00
    7.2250  4.807794E+00  1.416000E+00
    7.2750  2.370967E+00  1.428000E+00
    7.3250  6.236559E+00  1.460000E+00
    7.3750  2.307106E+00  1.472000E+00
    7.4250  3.034851E+00  1.488000E+00
    7.4750  7.485968E+00  1.528000E+00
    7.5250  2.954727E+00  1.544000E+00
    7.5750  5.102737E+00  1.572000E+00
    7.6250  1.007207E+01  1.628000E+00
    7.6750  1.065136E+01  1.688000E+00
    7.7250  6.308353E+00  1.724000E+00
    7.7750  7.611362E+00  1.768000E+00
    7.8250  8.880659E+00  1.820000E+00
    7.8750  8.768247E+00  1.872000E+00
    7.9250  5.327973E+00  1.904000E+00
    7.9750  0.000000E+00  1.904000E+00
    8.0250  6.495020E-01  1.908000E+00
    8.0750  0.000000E+00  1.908000E+00
    8.1250  0.000000E+00  1.908000E+00
    8.1750  6.258858E-01  1.912000E+00
    8.2250  0.000000E+00  1.912000E+00
    8.2750  6.108501E-01  1.916000E+00
    8.3250  6.035346E-01  1.920000E+00
    8.3750  0.000000E+00  1.920000E+00
    8.4250  5.892925E-01  1.924000E+00
    8.4750  5.823597E-01  1.928000E+00
    8.5250  0.000000E+00  1.928000E+00
    8.5750  5.688562E-01  1.932000E+00
    8.6250  0.000000E+00  1.932000E+00
    8.6750  5.558170E-01  1.936000E+00
    8.7250  0.000000E+00  1.936000E+00
    8.7750  5.432210E-01  1.940000E+00
    8.8250  5.370830E-01  1.944000E+00
    8.8750  5.310484E-01  1.948000E+00
    8.9250  1.050230E+00  1.956000E+00
    8.9750  5.712085E+00  2.000000E+00
    9.0250  0.000000E+00  2.000000E+00
    9.0750  0.000000E+00  2.000000E+00
    9.1250  0.000000E+00  2.000000E+00
    9.1750  0.000000E+00  2.000000E+00
    9.2250  0.000000E+00  2.000000E+00
    9.2750  0.000000E+00  2.000000E+00
    9.3250  4.810312E-01  2.004000E+00
    9.3750  4.283225E+00  2.040000E+00
    9.4250  5.650534E+00  2.088000E+00
    9.4750  6.522898E+00  2.144000E+00
    9.5250  6.915639E+00  2.204000E+00
    9.5750  9.581042E+00  2.288000E+00
    9.6250  1.173932E+01  2.392000E+00
    9.6750  5.362290E+00  2.440000E+00
    9.7250  7.518665E+00  2.508000E+00
    9.7750  3.939853E+00  2.544000E+00
    9.8250  6.499758E+00  2.604000E+00
    9.8750  4.718343E+00  2.648000E+00
    9.9250  4.246294E+00  2.688000E+00
    9.9750  5.464981E+00  2.740000E+00
   10.0250  4.578203E+00  2.784000E+00
   10.0750  3.296636E+00  2.816000E+00
   10.1250  8.160392E-01  2.824000E+00
   10.1750  3.636175E+00  2.860000E+00
   10.2250  1.200234E+00  2.872000E+00
   10.2750  1.980968E+00  2.892000E+00
   10.3250  7.847314E-01  2.900000E+00
   10.3750  3.108744E+00  2.932000E+00
   10.4250  3.078995E+00  2.964000E+00
   10.4750  1.906045E+00  2.984000E+00
   10.5250  2.643169E+00  3.012000E+00
   10.5750  2.618234E+00  3.040000E+00
   10.6250  1.852607E+00  3.060000E+00
   10.6750  4.771762E+00  3.112000E+00
   10.7250  4.000086E+00  3.156000E+00
   10.7750  5.404156E+00  3.216000E+00
   10.8250  2.855653E+00  3.248000E+00
   10.8750  2.829454E+00  3.280000E+00
   10.9250  3.504518E+00  3.320000E+00
   10.9750  2.083596E+00  3.344000E+00
   11.0250  2.752986E+00  3.376000E+00
   11.0750  4.092277E+00  3.424000E+00
   11.1250  6.759292E+00  3.504000E+00
   11.1750  4.354312E+00  3.556000E+00
   11.2250  3.651668E+00  3.600000E+00
   11.2750  4.606448E+00  3.656000E+00
   11.3250  5.218129E+00  3.720000E+00
   11.3750  5.495629E+00  3.788000E+00
   11.4250  1.217706E+01  3.940000E+00
   11.4750  5.717925E+00  4.012000E+00
   11.5250  3.778946E+00  4.060000E+00
   11.5750  3.434172E+00  4.104000E+00
   11.6250  5.261800E+00  4.172000E+00
   11.6750  2.148105E+00  4.200000E+00
   11.7250  2.738345E+00  4.236000E+00
   11.7750  3.016821E+00  4.276000E+00
   11.8250  5.683589E+00  4.352000E+00
   11.8750  2.669603E+00  4.388000E+00
   11.9250  1.764842E+00  4.412000E+00
   11.9750  4.083648E+00  4.468000E+00
   12.0250  2.603417E+00  4.504000E+00
   12.0750  1.721267E+00  4.528000E+00
   12.1250  5.690336E-01  4.536000E+00
   12.1750  5.643694E-01  4.544000E+00
   12.2250  1.119525E+00  4.560000E+00
   12.2750  1.110423E+00  4.576000E+00
   12.3250  1.376789E+00  4.596000E+00
   12.3750  8.194119E-01  4.608000E+00
   12.4250  1.354717E+00  4.628000E+00
   12.4750  1.343879E+00  4.648000E+00
   12.5250  7.999028E-01  4.660000E+00
   12.5750  1.322591E+00  4.680000E+00
   12.6250  2.361844E+00  4.716000E+00
   12.6750  2.603607E+00  4.756000E+00
   12.7250  2.066550E+00  4.788000E+00
   12.7750  1.025202E+00  4.804000E+00
   12.8250  1.525836E+00  4.828000E+00
   12.8750  1.009339E+00  4.844000E+00
   12.9250  7.511585E-01  4.856000E+00
   12.9750  9.938406E-01  4.872000E+00

g(r)  :S*      O*      

        r      g(r)         n(r)

    2.8750  0.000000E+00  0.000000E+00
    2.9250  0.000000E+00  0.000000E+00
    2.9750  2.362968E+00  2.000000E-03
    3.0250  4.571001E+00  6.000000E-03
    3.0750  2.211781E+00  8.000000E-03
    3.1250  1.499100E+01  2.200000E-02
    3.1750  1.037327E+01  3.200000E-02
    3.2250  6.032469E+00  3.800000E-02
    3.2750  1.949894E+01  5.800000E-02
    3.3250  1.135015E+01  7.000000E-02
    3.3750  5.508175E+00  7.600000E-02
    3.4250  1.426275E+01  9.200000E-02
    3.4750  6.927633E+00  1.000000E-01
    3.5250  0.000000E+00  1.000000E-01
    3.5750  0.000000E+00  1.000000E-01
    3.6250  0.000000E+00  1.000000E-01
    3.6750  0.000000E+00  1.000000E-01
    3.7250  1.507242E+00  1.020000E-01
    3.7750  4.402740E+00  1.080000E-01
    3.8250  5.717852E+00  1.160000E-01
    3.8750  5.571249E+00  1.240000E-01
    3.9250  1.357553E+00  1.260000E-01
    3.9750  1.323616E+00  1.280000E-01
    4.0250  5.163743E+00  1.360000E-01
    4.0750  3.778353E+00  1.420000E-01
    4.1250  2.458209E+00  1.460000E-01
    4.1750  2.399683E+00  1.500000E-01
    4.2250  4.686445E+00  1.580000E-01
    4.2750  1.144366E+00  1.600000E-01
    4.3250  4.472238E+00  1.680000E-01
    4.3750  1.092650E+00  1.700000E-01
    4.4250  5.340487E+00  1.800000E-01
    4.4750  4.177451E+00  1.880000E-01
    4.5250  1.327834E+01  2.140000E-01
    4.5750  3.996828E+00  2.220000E-01
    4.6250  3.910878E+00  2.300000E-01
    4.6750  4.784589E+00  2.400000E-01
    4.7250  3.747092E+00  2.480000E-01
    4.7750  8.255318E+00  2.660000E-01
    4.8250  1.257684E+01  2.940000E-01
    4.8750  8.800127E+00  3.140000E-01
    4.9250  9.484588E+00  3.360000E-01
    4.9750  8.449912E+00  3.560000E-01
    5.0250  1.242389E+01  3.860000E-01
    5.0750  1.218029E+01  4.160000E-01
    5.1250  1.512880E+01  4.540000E-01
    5.1750  1.015223E+01  4.800000E-01
    5.2250  1.685345E+01  5.240000E-01
    5.2750  1.202580E+01  5.560000E-01
    5.3250  1.475128E+01  5.960000E-01
    5.3750  1.303030E+01  6.320000E-01
    5.4250  9.238103E+00  6.580000E-01
    5.4750  8.372439E+00  6.820000E-01
    5.5250  6.851323E+00  7.020000E-01
    5.5750  1.143927E+01  7.360000E-01
    5.6250  9.914832E+00  7.660000E-01
    5.6750  1.233846E+01  8.040000E-01
    5.7250  1.595248E+01  8.540000E-01
    5.7750  1.254196E+01  8.940000E-01
    5.8250  8.012920E+00  9.200000E-01
    5.8750  9.694906E+00  9.520000E-01
    5.9250  6.553230E+00  9.740000E-01
    5.9750  6.444012E+00  9.960000E-01
    6.0250  9.794321E+00  1.030000E+00
    6.0750  7.366994E+00  1.056000E+00
    6.1250  9.477119E+00  1.090000E+00
    6.1750  1.480913E+01  1.144000E+00
    6.2250  5.397106E+00  1.164000E+00
    6.2750  6.373727E+00  1.188000E+00
    6.3250  6.273356E+00  1.212000E+00
    6.3750  9.777616E+00  1.250000E+00
    6.4250  6.079597E+00  1.274000E+00
    6.4750  4.489550E+00  1.292000E+00
    6.5250  2.947339E+00  1.304000E+00
    6.5750  3.870244E+00  1.320000E+00
    6.6250  2.859035E+00  1.332000E+00
    6.6750  3.755151E+00  1.348000E+00
    6.7250  2.774640E+00  1.360000E+00
    6.7750  1.822558E+00  1.368000E+00
    6.8250  2.693928E+00  1.380000E+00
    6.8750  2.654886E+00  1.392000E+00
    6.9250  4.361145E+00  1.412000E+00
    6.9750  1.719538E+00  1.420000E+00
    7.0250  2.966508E+00  1.434000E+00
    7.0750  3.342545E+00  1.450000E+00
    7.1250  3.295797E+00  1.466000E+00
    7.1750  4.468781E+00  1.488000E+00
    7.2250  4.407144E+00  1.510000E+00
    7.2750  4.346773E+00  1.532000E+00
    7.3250  4.287634E+00  1.554000E+00
    7.3750  5.383247E+00  1.582000E+00
    7.4250  3.034851E+00  1.598000E+00
    7.4750  4.865879E+00  1.624000E+00
    7.5250  1.846704E+00  1.634000E+00
    7.5750  1.093444E+00  1.640000E+00
    7.6250  2.877735E+00  1.656000E+00
    7.6750  3.550452E+00  1.676000E+00
    7.7250  4.205569E+00  1.700000E+00
    7.7750  3.459710E+00  1.720000E+00
    7.8250  2.732510E+00  1.736000E+00
    7.8750  5.058604E+00  1.766000E+00
    7.9250  7.658961E+00  1.812000E+00
    7.9750  3.946030E+00  1.836000E+00
    8.0250  3.247510E+00  1.856000E+00
    8.0750  3.207418E+00  1.876000E+00
    8.1250  3.484870E+00  1.898000E+00
    8.1750  2.503543E+00  1.914000E+00
    8.2250  5.255545E+00  1.948000E+00
    8.2750  2.748826E+00  1.966000E+00
    8.3250  5.431812E+00  2.002000E+00
    8.3750  4.472623E+00  2.032000E+00
    8.4250  2.651816E+00  2.050000E+00
    8.4750  2.329439E+00  2.066000E+00
    8.5250  1.726646E+00  2.078000E+00
    8.5750  2.275425E+00  2.094000E+00
    8.6250  2.249120E+00  2.110000E+00
    8.6750  1.945359E+00  2.124000E+00
    8.7250  2.472592E+00  2.142000E+00
    8.7750  2.172884E+00  2.158000E+00
    8.8250  2.148332E+00  2.174000E+00
    8.8750  1.858669E+00  2.188000E+00
    8.9250  2.100460E+00  2.204000E+00
    8.9750  3.634963E+00  2.232000E+00
    9.0250  1.540628E+00  2.244000E+00
    9.0750  1.777648E+00  2.258000E+00
    9.1250  2.009394E+00  2.274000E+00
    9.1750  2.484442E+00  2.294000E+00
    9.2250  1.966066E+00  2.310000E+00
    9.2750  1.458695E+00  2.322000E+00
    9.3250  3.848250E+00  2.354000E+00
    9.3750  3.807311E+00  2.386000E+00
    9.4250  2.825267E+00  2.410000E+00
    9.4750  2.562567E+00  2.432000E+00
    9.5250  1.383128E+00  2.444000E+00
    9.5750  9.124802E-01  2.452000E+00
    9.6250  2.709074E+00  2.476000E+00
    9.6750  1.564001E+00  2.490000E+00
    9.7250  1.990235E+00  2.508000E+00
    9.7750  1.751046E+00  2.524000E+00
    9.8250  2.383245E+00  2.546000E+00
    9.8750  3.217052E+00  2.576000E+00
    9.9250  4.246294E+00  2.616000E+00
    9.9750  3.993640E+00  2.654000E+00
   10.0250  3.953902E+00  2.692000E+00
   10.0750  5.563073E+00  2.746000E+00
   10.1250  4.080196E+00  2.786000E+00
   10.1750  5.454263E+00  2.840000E+00
   10.2250  3.600701E+00  2.876000E+00
   10.2750  4.952420E+00  2.926000E+00
   10.3250  4.904571E+00  2.976000E+00
   10.3750  5.440302E+00  3.032000E+00
   10.4250  4.618493E+00  3.080000E+00
   10.4750  6.099343E+00  3.144000E+00
   10.5250  4.531148E+00  3.192000E+00
   10.5750  4.488401E+00  3.240000E+00
   10.6250  4.816778E+00  3.292000E+00
   10.6750  4.037645E+00  3.336000E+00
   10.7250  4.363730E+00  3.384000E+00
   10.7750  3.062355E+00  3.418000E+00
   10.8250  2.141740E+00  3.442000E+00
   10.8750  1.945250E+00  3.464000E+00
   10.9250  1.577033E+00  3.482000E+00
   10.9750  2.430862E+00  3.510000E+00
   11.0250  2.752986E+00  3.542000E+00
   11.0750  1.875627E+00  3.564000E+00
   11.1250  1.182876E+00  3.578000E+00
   11.1750  2.344630E+00  3.606000E+00
   11.2250  3.651668E+00  3.650000E+00
   11.2750  2.961288E+00  3.686000E+00
   11.3250  2.119865E+00  3.712000E+00
   11.3750  2.262906E+00  3.740000E+00
   11.4250  2.403367E+00  3.770000E+00
   11.4750  3.653118E+00  3.816000E+00
   11.5250  3.778946E+00  3.864000E+00
   11.5750  2.341481E+00  3.894000E+00
   11.6250  1.392829E+00  3.912000E+00
   11.6750  1.687797E+00  3.934000E+00
   11.7250  1.825563E+00  3.958000E+00
   11.7750  1.206728E+00  3.974000E+00
   11.8250  2.243522E+00  4.004000E+00
   11.8750  1.038179E+00  4.018000E+00
   11.9250  8.824210E-01  4.030000E+00
   11.9750  1.166757E+00  4.046000E+00
   12.0250  1.590977E+00  4.068000E+00
   12.0750  8.606337E-01  4.080000E+00
   12.1250  1.991617E+00  4.108000E+00
   12.1750  1.975293E+00  4.136000E+00
   12.2250  1.819227E+00  4.162000E+00
   12.2750  1.249226E+00  4.180000E+00
   12.3250  1.376789E+00  4.200000E+00
   12.3750  5.462746E-01  4.208000E+00
   12.4250  9.483020E-01  4.222000E+00
   12.4750  9.407156E-01  4.236000E+00
   12.5250  1.466488E+00  4.258000E+00
   12.5750  2.512922E+00  4.296000E+00
   12.6250  9.184948E-01  4.310000E+00
   12.6750  1.431984E+00  4.332000E+00
   12.7250  1.937390E+00  4.362000E+00
   12.7750  1.794104E+00  4.390000E+00
   12.8250  2.543061E+00  4.430000E+00
   12.8750  2.271012E+00  4.466000E+00
   12.9250  1.752703E+00  4.494000E+00
   12.9750  2.608831E+00  4.536000E+00

g(r)  :O*      O*      

        r      g(r)         n(r)

    4.0750  0.000000E+00  0.000000E+00
    4.1250  0.000000E+00  0.000000E+00
    4.1750  4.799366E+00  8.000000E-03
    4.2250  4.686445E+00  1.600000E-02
    4.2750  2.288731E+00  2.000000E-02
    4.3250  6.708357E+00  3.200000E-02
    4.3750  1.748240E+01  6.400000E-02
    4.4250  8.544779E+00  8.000000E-02
    4.4750  1.462108E+01  1.080000E-01
    4.5250  1.634257E+01  1.400000E-01
    4.5750  4.996035E+01  2.400000E-01
    4.6250  3.910878E+01  3.200000E-01
    4.6750  3.062137E+01  3.840000E-01
    4.7250  1.311482E+01  4.120000E-01
    4.7750  3.302127E+01  4.840000E-01
    4.8250  1.257684E+01  5.120000E-01
    4.8750  1.232018E+01  5.400000E-01
    4.9250  1.552024E+01  5.760000E-01
    4.9750  8.449912E+00  5.960000E-01
    5.0250  6.626074E+00  6.120000E-01
    5.0750  1.948846E+01  6.600000E-01
    5.1250  1.274004E+01  6.920000E-01
    5.1750  4.685643E+00  7.040000E-01
    5.2250  6.128527E+00  7.200000E-01
    5.2750  4.509673E+00  7.320000E-01
    5.3250  5.900510E+00  7.480000E-01
    5.3750  8.686867E+00  7.720000E-01
    5.4250  5.684986E+00  7.880000E-01
    5.4750  4.186219E+00  8.000000E-01
    5.5250  2.740529E+00  8.080000E-01
    5.5750  2.691593E+00  8.160000E-01
    5.6250  3.965933E+00  8.280000E-01
    5.6750  6.493928E+00  8.480000E-01
    5.7250  6.380993E+00  8.680000E-01
    5.7750  2.508391E+00  8.760000E-01
    5.8250  7.396542E+00  9.000000E-01
    5.8750  1.333050E+01  9.440000E-01
    5.9250  5.957482E+00  9.640000E-01
    5.9750  9.373108E+00  9.960000E-01
    6.0250  4.609092E+00  1.012000E+00
    6.0750  2.266767E+00  1.020000E+00
    6.1250  8.919641E+00  1.052000E+00
    6.1750  4.387890E+00  1.068000E+00
    6.2250  6.476527E+00  1.092000E+00
    6.2750  7.436015E+00  1.120000E+00
    6.3250  1.672895E+01  1.184000E+00
    6.3750  5.146114E+00  1.204000E+00
    6.4250  6.079597E+00  1.228000E+00
    6.4750  8.979100E+00  1.264000E+00
    6.5250  9.824463E-01  1.268000E+00
    6.5750  7.740489E+00  1.300000E+00
    6.6250  2.859035E+00  1.312000E+00
    6.6750  9.387878E+00  1.352000E+00
    6.7250  7.399040E+00  1.384000E+00
    6.7750  1.822558E+00  1.392000E+00
    6.8250  3.591904E+00  1.408000E+00
    6.8750  8.849621E-01  1.412000E+00
    6.9250  2.616687E+00  1.424000E+00
    6.9750  5.158613E+00  1.448000E+00
    7.0250  5.933016E+00  1.476000E+00
    7.0750  2.506909E+00  1.488000E+00
    7.1250  2.471848E+00  1.500000E+00
    7.1750  4.062529E+00  1.520000E+00
    7.2250  3.205196E+00  1.536000E+00
    7.2750  4.741934E+00  1.560000E+00
    7.3250  3.897849E+00  1.580000E+00
    7.3750  1.538071E+00  1.588000E+00
    7.4250  2.276139E+00  1.600000E+00
    7.4750  7.485968E-01  1.604000E+00
    7.5250  1.477364E+00  1.612000E+00
    7.5750  2.915850E+00  1.628000E+00
    7.6250  3.597168E+00  1.648000E+00
    7.6750  4.970633E+00  1.676000E+00
    7.7250  2.803713E+00  1.692000E+00
    7.7750  3.459710E+00  1.712000E+00
    7.8250  6.831276E+00  1.752000E+00
    7.8750  1.348961E+00  1.760000E+00
    7.9250  3.329983E+00  1.780000E+00
    7.9750  1.315343E+00  1.788000E+00
    8.0250  3.247510E+00  1.808000E+00
    8.0750  6.414836E-01  1.812000E+00
    8.1250  1.267225E+00  1.820000E+00
    8.1750  1.251772E+00  1.828000E+00
    8.2250  6.182994E-01  1.832000E+00
    8.2750  6.108501E-01  1.836000E+00
    8.3250  3.017673E+00  1.856000E+00
    8.3750  4.770798E+00  1.888000E+00
    8.4250  2.357170E+00  1.904000E+00
    8.4750  2.329439E+00  1.920000E+00
    8.5250  3.453291E+00  1.944000E+00
    8.5750  1.137712E+00  1.952000E+00
    8.6250  3.935959E+00  1.980000E+00
    8.6750  2.223268E+00  1.996000E+00
    8.7250  4.945184E+00  2.032000E+00
    8.7750  5.432210E+00  2.072000E+00
    8.8250  3.222498E+00  2.096000E+00
    8.8750  2.655242E+00  2.116000E+00
    8.9250  3.675805E+00  2.144000E+00
    8.9750  4.154243E+00  2.176000E+00
    9.0250  7.703139E+00  2.236000E+00
    9.0750  7.110590E+00  2.292000E+00
    9.1250  5.525834E+00  2.336000E+00
    9.1750  4.471995E+00  2.372000E+00
    9.2250  4.915166E+00  2.412000E+00
    9.2750  6.807241E+00  2.468000E+00
    9.3250  6.253406E+00  2.520000E+00
    9.3750  4.283225E+00  2.556000E+00
    9.4250  7.534045E+00  2.620000E+00
    9.4750  3.261449E+00  2.648000E+00
    9.5250  5.993553E+00  2.700000E+00
    9.5750  4.562401E+00  2.740000E+00
    9.6250  4.966635E+00  2.784000E+00
    9.6750  2.234288E+00  2.804000E+00
    9.7250  8.845488E-01  2.812000E+00
    9.7750  2.626569E+00  2.836000E+00
    9.8250  3.466538E+00  2.868000E+00
    9.8750  3.002582E+00  2.896000E+00
    9.9250  3.397035E+00  2.928000E+00
    9.9750  2.942682E+00  2.956000E+00
   10.0250  2.081001E+00  2.976000E+00
   10.0750  1.648318E+00  2.992000E+00
   10.1250  4.488216E+00  3.036000E+00
   10.1750  2.828136E+00  3.064000E+00
   10.2250  2.400467E+00  3.088000E+00
   10.2750  3.565743E+00  3.124000E+00
   10.3250  2.354194E+00  3.148000E+00
   10.3750  1.942965E+00  3.168000E+00
   10.4250  2.694121E+00  3.196000E+00
   10.4750  3.812090E+00  3.236000E+00
   10.5250  2.265574E+00  3.260000E+00
   10.5750  1.496134E+00  3.276000E+00
   10.6250  2.593650E+00  3.304000E+00
   10.6750  2.202352E+00  3.328000E+00
   10.7250  2.909153E+00  3.360000E+00
   10.7750  1.801385E+00  3.380000E+00
   10.8250  2.141740E+00  3.404000E+00
   10.8750  1.768409E+00  3.424000E+00
   10.9250  2.102711E+00  3.448000E+00
   10.9750  1.389064E+00  3.464000E+00
   11.0250  4.129479E+00  3.512000E+00
   11.0750  1.023069E+00  3.524000E+00
   11.1250  2.703717E+00  3.556000E+00
   11.1750  2.009683E+00  3.580000E+00
   11.2250  1.991819E+00  3.604000E+00
   11.2750  2.632256E+00  3.636000E+00
   11.3250  2.609065E+00  3.668000E+00
   11.3750  9.698169E-01  3.680000E+00
   11.4250  3.204490E-01  3.684000E+00
   11.4750  1.588312E+00  3.704000E+00
   11.5250  1.889473E+00  3.728000E+00
   11.5750  3.746369E+00  3.776000E+00
   11.6250  1.857106E+00  3.800000E+00
   11.6750  2.761850E+00  3.836000E+00
   11.7250  2.129824E+00  3.864000E+00
   11.7750  1.206728E+00  3.880000E+00
   11.8250  1.495681E+00  3.900000E+00
   11.8750  5.932450E-01  3.908000E+00
   11.9250  1.176561E+00  3.924000E+00
   11.9750  1.166757E+00  3.940000E+00
   12.0250  1.735611E+00  3.964000E+00
   12.0750  1.434389E+00  3.984000E+00
   12.1250  1.138067E+00  4.000000E+00
   12.1750  5.643694E-01  4.008000E+00
   12.2250  2.798812E-01  4.012000E+00
   12.2750  1.110423E+00  4.028000E+00
   12.3250  8.260737E-01  4.040000E+00
   12.3750  2.185098E+00  4.072000E+00
   12.4250  1.354717E+00  4.092000E+00
   12.4750  1.075104E+00  4.108000E+00
   12.5250  5.332685E-01  4.116000E+00
   12.5750  7.935544E-01  4.128000E+00
   12.6250  1.312135E+00  4.148000E+00
   12.6750  2.603607E-01  4.152000E+00
   12.7250  1.291594E+00  4.172000E+00
   12.7750  2.306705E+00  4.208000E+00
   12.8250  2.288754E+00  4.244000E+00
   12.8750  2.018678E+00  4.276000E+00
   12.9250  3.255020E+00  4.328000E+00
   12.9750  1.739221E+00  4.356000E+00

 time elapsed since job start =          75.465 seconds

