
                    DL_POLY Classic 1.8

                              Running on    8 nodes


 ************************************************************************************************************************
 ************************************************************************************************************************
 ************************************************************************************************************************
 ***************     TEST CASE 39: Calcite Nanoparticle Metadynamics                                      ***************
 ************************************************************************************************************************
 ************************************************************************************************************************
 ************************************************************************************************************************


 SIMULATION CONTROL PARAMETERS


 simulation temperature           3.1000E+02

 simulation pressure (katm)       1.0000E-03

 selected number of timesteps       100000

 equilibration period                 5000

 Nose-Hoover  (Melchionna) isotropic N-P-T 
 thermostat relaxation time       2.0000E-02
 barostat relaxation time         3.0000E-01

 simulation timestep              1.0000E-04

 real space cut off               1.0100E+01

 border width of Verlet shell     5.0000E-01

 real space cut off (vdw)         1.0100E+01

 Ewald sum  precision             1.0000E-06

 Electrostatics : SPME  

 Ewald convergence parameter      3.1748E-01
 Ewald kmax1 kmax2 kmax3        16   16   16

 statistics file interval              100

 scaled restart requested

 metadynamics controls
 total number of collective variables         6
 steinhardt parameters option (Q4/Q6)         T
 tetrahedral parameters option (zeta)         F
 global potential parameter option            F
 local potential parameter option             T
 global potential param. scale factor  0.1000E+01
 local potential param. scale factor   0.1520E-05
 number of Q4 atom pair types                 5
 number of Q6 atom pair types                 0
 number of zeta atom triplet types            0
 gaussian deposition interval               500
 reference gaussian height             0.7500E+01
 gaussian width parameter              0.3500E+01
 height control key                           2
 well-tempered control parameter       0.3500E+02

 data printing interval                100

 user allocated job time (d)     50.0000

 job closure time        (s)     120.000


SYSTEM SPECIFICATION

 energy units=electron volts 


 number of molecular types               3

 molecular species type                  1


 name of species:             Ca                                      

 number of molecules                    75

 number of atoms/sites                   1


 atomic characteristics:

                      site     name          mass        charge    repeat    freeze

                         1     Ca          40.10000     2.00000         1         0

 molecular species type                  2


 name of species:             CO3                                     

 number of molecules                    75

 number of atoms/sites                   4


 atomic characteristics:

                      site     name          mass        charge    repeat    freeze

                         2     C_CaCO3     12.00000     1.13500         1         0
                         3     O_CaCO3     15.80000    -1.04500         1         0
                         4     O_CaCO3     15.80000    -1.04500         1         0
                         5     O_CaCO3     15.80000    -1.04500         1         0

 number of chemical bonds                3


 chemical bond details:

                            key     index     index                            parameters

                           -mrs         1         2     4.710000E+00   1.180000E+00   3.800000E+00   1.500000E+00
                           -mrs         1         3     4.710000E+00   1.180000E+00   3.800000E+00   1.500000E+00
                           -mrs         1         4     4.710000E+00   1.180000E+00   3.800000E+00   1.500000E+00

 number of bond angles                   3


 bond angle details:

                            key     index     index     index     f-const       angle

                           -hrm         2         1         3  1.6900E+00  120.000000    0.000000    0.000000    0.000000    0.000000
                           -hrm         2         1         4  1.6900E+00  120.000000    0.000000    0.000000    0.000000    0.000000
                           -hrm         3         1         4  1.6900E+00  120.000000    0.000000    0.000000    0.000000    0.000000

 molecular species type                  3


 name of species:             WATER                                   

 number of molecules                   863

 number of atoms/sites                   3


 atomic characteristics:

                      site     name          mass        charge    repeat    freeze

                         6     O_tip3p     15.80000    -0.83400         1         0
                         7     H_tip3p      1.00800     0.41700         1         0
                         8     H_tip3p      1.00800     0.41700         1         0

 number of chemical bonds                2


 chemical bond details:

                            key     index     index                            parameters

                           harm         1         2     2.399075E+01   9.572000E-01   0.000000E+00   0.000000E+00
                           harm         1         3     2.399075E+01   9.572000E-01   0.000000E+00   0.000000E+00

 number of bond angles                   1


 bond angle details:

                            key     index     index     index     f-const       angle

                           harm         2         1         3  4.3383E+00  104.520000    0.000000    0.000000    0.000000    0.000000


 number of specified pair potentials         5


                atom 1  atom 2      key                              parameters


                O_CaCO3 O_CaCO3   buck     1.63720E+04  2.13000E-01  3.47000E+00
                O_CaCO3 Ca        buck     1.55000E+03  2.97000E-01  0.00000E+00
                Ca      O_tip3p   buck     1.18660E+03  2.97000E-01  0.00000E+00
                O_tip3p O_tip3p   12-6     2.52461E+04  2.58052E+01
                O_CaCO3 O_tip3p   nm       1.30000E-03  9.00000E+00  6.00000E+00  4.63000E+00

  *** warning - undefined atom-atom interactions set to zero ***

 configuration file name: 

           CONFIG file created from Xmol file config.xmol                                 


 selected image convention               3


 simulation cell vectors


                        31.309730    0.000000    0.000000
                         0.000000   31.309730    0.000000
                         0.000000    0.000000   31.309730


 system volume            30692.9022528    


 total degrees of freedom                      8889.
 rotational degrees of freedom                    0.
 shell pseudo degrees of freedom                  0.


 sample of starting configuration

      i       x(i)        y(i)        z(i)       vx(i)       vy(i)       vz(i)       fx(i)       fy(i)       fz(i)


      1  6.4213E+00 -1.0342E+00  1.2287E+00 -1.0690E+00  1.1071E+00  1.3198E+00 -6.3197E+03 -1.0299E+04  4.6861E+02
    150 -2.5377E+00  5.6831E+00  1.7268E+00  1.3007E+00  4.4975E+00  2.4609E+00 -8.0725E+03  1.2304E+04 -3.1815E+03
    299 -3.6236E+00 -8.5560E-01 -8.9887E+00  7.1242E-01 -3.6946E+00  1.5673E+00  3.1994E+02 -2.4341E+03 -6.0911E+03
    448 -5.3318E+00 -9.6619E+00 -8.3245E+00 -6.0526E-01 -2.9598E+00 -6.4834E+00 -5.7268E+03  5.4310E+03 -7.7519E+03
    597 -8.6591E+00 -4.7710E+00 -9.7630E+00 -6.1977E+00  2.4210E+00  1.2056E+01 -6.5485E+03 -1.0087E+03 -1.8386E+03
    746  7.6071E+00  1.1701E+01 -1.1508E+00  2.0961E+01 -6.3820E+00  1.5693E+01  3.7540E+03 -7.1646E+03 -1.6011E+03
    895 -1.2606E+01 -4.9060E+00  6.6754E+00 -7.9894E-01 -4.0686E+00  2.3616E+00 -4.0258E+03  1.3311E+03 -6.7033E+02
   1044  5.1551E+00 -1.1592E+01 -6.1066E+00  4.4490E+00  9.7888E-01 -4.9509E+01 -3.8656E+03 -3.3679E+01 -1.2223E+04
   1193  2.6980E-01  1.0842E+01 -1.5250E+01  4.9905E+00  1.1322E+01 -2.9153E+01  3.9370E+03  3.5123E+02  1.3312E+03
   1342 -9.7072E+00  5.0140E+00  1.3959E+01 -5.5348E+00  4.3762E+00  4.2441E+00 -1.6284E+03  4.4851E+03 -4.4160E+03
   1491 -8.4892E+00 -4.5239E+00  1.4725E+01  2.9860E+00 -8.6165E+00 -4.5926E+00  5.5186E+02 -2.4698E+03  3.4469E+02
   1640 -6.9646E-01  1.1180E+01 -9.5885E+00 -2.9740E+01  1.3580E+01  4.7344E+00 -1.2252E+04  7.1628E+03 -3.9890E+03
   1789 -1.3679E+01  1.3808E+01 -4.5113E+00  4.1085E+00 -8.0395E+00  4.8836E+00  1.2142E+04 -5.9224E+03  9.9841E+03
   1938 -1.1730E+01  8.4096E+00  3.0194E+00  1.3365E+01  3.9685E+00  4.1253E+01 -1.1582E+03  2.8562E+03 -9.2247E+02
   2087 -1.4022E+01  4.8026E-01  6.6225E+00  1.4874E+00 -1.2838E+01  2.6991E+01  3.7881E+03 -3.7626E+02  2.1826E+03
   2236 -9.4319E+00 -4.1233E+00  9.7197E+00  8.1134E+00  2.0745E+00  2.3488E+00  2.2822E+03 -1.5434E+03 -6.4127E+03
   2385 -1.1328E+01 -1.1806E+01  1.0060E+01 -1.5963E+00 -4.5569E+00  1.1583E+01  1.7944E+03 -5.8048E+02 -2.2565E+03
   2534 -1.3287E+01 -1.5318E+00 -3.8464E+00  2.2514E+01 -3.1286E+01 -1.7771E+01  7.2031E+02  2.8681E+03  3.2861E+03
   2683 -1.5590E+01 -7.2922E+00 -1.7139E+00  2.1442E-01  4.6639E-01  9.5162E-01  7.4998E+03 -6.3098E+03  1.1218E+04
   2832 -8.1833E+00  1.2432E+01 -4.0557E+00  9.1147E+00 -1.1233E+01 -3.2660E+01  4.6684E+03 -2.9199E+03 -1.2499E+04


long range correction for: vdw energy    -0.224056E+01
                         : vdw pressure  -0.229181E+00

 time elapsed since job start =           0.062 seconds

 ------------------------------------------------------------------------------------------------------------------------

     step     eng_tot    temp_tot     eng_cfg     eng_vdw     eng_cou     eng_bnd     eng_ang     eng_dih     eng_tet
 time          eng_pv    temp_rot     vir_cfg     vir_vdw     vir_cou     vir_bnd     vir_ang     vir_con     vir_tet
 cpu time      volume    temp_shl     eng_shl     vir_shl       alpha        beta       gamma     vir_pmf       press

 ------------------------------------------------------------------------------------------------------------------------
        1 -4.7967E+03  3.0963E+02 -4.9153E+03  5.6870E+02 -4.5057E+03 -1.0017E+03  2.3392E+01  0.0000E+00  0.0000E+00
   0.100f -4.8134E+03  0.0000E+00  2.8716E+02 -6.1999E+03  4.5057E+03  1.9814E+03  0.0000E+00  0.0000E+00  0.0000E+00
   0.116s  3.0693E+04  0.0000E+00  0.0000E+00  0.0000E+00  9.0000E+01  9.0000E+01  9.0000E+01  0.0000E+00 -8.5827E-01

  rolling -4.7967E+03  3.0963E+02 -4.9153E+03  5.6870E+02 -4.5057E+03 -1.0017E+03  2.3392E+01  0.0000E+00  0.0000E+00
 averages -4.8134E+03  0.0000E+00  2.8716E+02 -6.1999E+03  4.5057E+03  1.9814E+03  0.0000E+00  0.0000E+00  0.0000E+00
           3.0693E+04  0.0000E+00  0.0000E+00  0.0000E+00  9.0000E+01  9.0000E+01  9.0000E+01  0.0000E+00 -8.5827E-01
 ------------------------------------------------------------------------------------------------------------------------
      100 -4.7967E+03  2.9434E+02 -4.9087E+03  5.7456E+02 -4.5092E+03 -9.9882E+02  2.4738E+01  0.0000E+00  0.0000E+00
  10.000f -4.7668E+03  0.0000E+00  1.3803E+02 -6.2577E+03  4.5091E+03  1.8866E+03  0.0000E+00  0.0000E+00  0.0000E+00
   2.404s  3.0671E+04  0.0000E+00  0.0000E+00  0.0000E+00  9.0000E+01  9.0000E+01  9.0000E+01  0.0000E+00  1.5024E+00

  rolling -4.7967E+03  3.0045E+02 -4.9116E+03  5.7098E+02 -4.5091E+03 -9.9729E+02  2.3900E+01  0.0000E+00  0.0000E+00
 averages -4.8201E+03  0.0000E+00  3.0094E+02 -6.2218E+03  4.5091E+03  2.0136E+03  0.0000E+00  0.0000E+00  0.0000E+00
           3.0685E+04  0.0000E+00  0.0000E+00  0.0000E+00  9.0000E+01  9.0000E+01  9.0000E+01  0.0000E+00 -1.2159E+00
 ------------------------------------------------------------------------------------------------------------------------
      200 -4.7967E+03  3.0218E+02 -4.9089E+03  5.7371E+02 -4.5096E+03 -9.9580E+02  2.2776E+01  0.0000E+00  0.0000E+00
  20.000f -4.8203E+03  0.0000E+00  3.1297E+02 -6.2553E+03  4.5095E+03  2.0588E+03  0.0000E+00  0.0000E+00  0.0000E+00
   4.722s  3.0648E+04  0.0000E+00  0.0000E+00  0.0000E+00  9.0000E+01  9.0000E+01  9.0000E+01  0.0000E+00 -1.4017E+00

  rolling -4.7967E+03  3.0025E+02 -4.9097E+03  5.7399E+02 -4.5091E+03 -9.9862E+02  2.4014E+01  0.0000E+00  0.0000E+00
 averages -4.7974E+03  0.0000E+00  2.3795E+02 -6.2561E+03  4.5090E+03  1.9850E+03  0.0000E+00  0.0000E+00  0.0000E+00
           3.0660E+04  0.0000E+00  0.0000E+00  0.0000E+00  9.0000E+01  9.0000E+01  9.0000E+01  0.0000E+00 -1.3706E-01
 ------------------------------------------------------------------------------------------------------------------------
      300 -4.7967E+03  3.1089E+02 -4.9080E+03  5.7919E+02 -4.5168E+03 -9.9661E+02  2.6278E+01  0.0000E+00  0.0000E+00
  30.000f -4.7795E+03  0.0000E+00  2.1003E+02 -6.3018E+03  4.5168E+03  1.9950E+03  0.0000E+00  0.0000E+00  0.0000E+00
   7.059s  3.0617E+04  0.0000E+00  0.0000E+00  0.0000E+00  9.0000E+01  9.0000E+01  9.0000E+01  0.0000E+00  4.8397E-01

  rolling -4.7967E+03  3.0569E+02 -4.9082E+03  5.7698E+02 -4.5112E+03 -9.9800E+02  2.4083E+01  0.0000E+00  0.0000E+00
 averages -4.7807E+03  0.0000E+00  2.0295E+02 -6.2840E+03  4.5112E+03  1.9758E+03  0.0000E+00  0.0000E+00  0.0000E+00
           3.0631E+04  0.0000E+00  0.0000E+00  0.0000E+00  9.0000E+01  9.0000E+01  9.0000E+01  0.0000E+00  5.3721E-01
 ------------------------------------------------------------------------------------------------------------------------
      400 -4.7967E+03  3.1024E+02 -4.9034E+03  5.7471E+02 -4.5058E+03 -9.9597E+02  2.3701E+01  0.0000E+00  0.0000E+00
  40.000f -4.7883E+03  0.0000E+00  2.4889E+02 -6.2577E+03  4.5058E+03  2.0008E+03  0.0000E+00  0.0000E+00  0.0000E+00
   9.370s  3.0598E+04  0.0000E+00  0.0000E+00  0.0000E+00  9.0000E+01  9.0000E+01  9.0000E+01  0.0000E+00 -1.9379E-01

  rolling -4.7967E+03  3.1335E+02 -4.9067E+03  5.7637E+02 -4.5110E+03 -9.9740E+02  2.5375E+01  0.0000E+00  0.0000E+00
 averages -4.7821E+03  0.0000E+00  2.2631E+02 -6.2744E+03  4.5110E+03  1.9897E+03  0.0000E+00  0.0000E+00  0.0000E+00
           3.0607E+04  0.0000E+00  0.0000E+00  0.0000E+00  9.0000E+01  9.0000E+01  9.0000E+01  0.0000E+00  2.3621E-01
 ------------------------------------------------------------------------------------------------------------------------
      500 -4.7967E+03  3.2600E+02 -4.9061E+03  5.7648E+02 -4.5091E+03 -1.0004E+03  2.6885E+01  0.0000E+00  0.0000E+00
  50.000f -4.7416E+03  0.0000E+00  1.3085E+02 -6.2745E+03  4.5091E+03  1.8963E+03  0.0000E+00  0.0000E+00  0.0000E+00
  11.708s  3.0583E+04  0.0000E+00  0.0000E+00  0.0000E+00  9.0000E+01  9.0000E+01  9.0000E+01  0.0000E+00  2.0487E+00

  rolling -4.7967E+03  3.1842E+02 -4.9047E+03  5.7623E+02 -4.5089E+03 -9.9725E+02  2.5199E+01  0.0000E+00  0.0000E+00
 averages -4.7705E+03  0.0000E+00  2.0721E+02 -6.2724E+03  4.5089E+03  1.9707E+03  0.0000E+00  0.0000E+00  0.0000E+00
           3.0589E+04  0.0000E+00  0.0000E+00  0.0000E+00  9.0000E+01  9.0000E+01  9.0000E+01  0.0000E+00  6.3260E-01
 ------------------------------------------------------------------------------------------------------------------------
      600 -4.7967E+03  3.1785E+02 -4.9018E+03  5.7285E+02 -4.5032E+03 -9.9448E+02  2.2971E+01  0.0000E+00  0.0000E+00
  60.000f -4.7829E+03  0.0000E+00  2.5189E+02 -6.2441E+03  4.5031E+03  1.9929E+03  0.0000E+00  0.0000E+00  0.0000E+00
  14.017s  3.0585E+04  0.0000E+00  0.0000E+00  0.0000E+00  9.0000E+01  9.0000E+01  9.0000E+01  0.0000E+00 -1.4504E-01

  rolling -4.7967E+03  3.2227E+02 -4.9039E+03  5.7337E+02 -4.5057E+03 -9.9663E+02  2.5038E+01  0.0000E+00  0.0000E+00
 averages -4.7870E+03  0.0000E+00  2.6650E+02 -6.2478E+03  4.5056E+03  2.0086E+03  0.0000E+00  0.0000E+00  0.0000E+00
           3.0585E+04  0.0000E+00  0.0000E+00  0.0000E+00  9.0000E+01  9.0000E+01  9.0000E+01  0.0000E+00 -3.3842E-01
 ------------------------------------------------------------------------------------------------------------------------
      700 -4.7967E+03  3.1906E+02 -4.9035E+03  5.7332E+02 -4.5071E+03 -9.9679E+02  2.7023E+01  0.0000E+00  0.0000E+00
  70.000f -4.7866E+03  0.0000E+00  2.6032E+02 -6.2457E+03  4.5071E+03  1.9989E+03  0.0000E+00  0.0000E+00  0.0000E+00
  16.340s  3.0590E+04  0.0000E+00  0.0000E+00  0.0000E+00  9.0000E+01  9.0000E+01  9.0000E+01  0.0000E+00 -2.7430E-01

  rolling -4.7967E+03  3.2105E+02 -4.9035E+03  5.7439E+02 -4.5049E+03 -9.9800E+02  2.5029E+01  0.0000E+00  0.0000E+00
 averages -4.7613E+03  0.0000E+00  1.8818E+02 -6.2570E+03  4.5049E+03  1.9403E+03  0.0000E+00  0.0000E+00  0.0000E+00
           3.0584E+04  0.0000E+00  0.0000E+00  0.0000E+00  9.0000E+01  9.0000E+01  9.0000E+01  0.0000E+00  9.9520E-01
 ------------------------------------------------------------------------------------------------------------------------
 ------------------------------------------------------------------------------------------------------------------------

     step     eng_tot    temp_tot     eng_cfg     eng_vdw     eng_cou     eng_bnd     eng_ang     eng_dih     eng_tet
 time          eng_pv    temp_rot     vir_cfg     vir_vdw     vir_cou     vir_bnd     vir_ang     vir_con     vir_tet
 cpu time      volume    temp_shl     eng_shl     vir_shl       alpha        beta       gamma     vir_pmf       press

 ------------------------------------------------------------------------------------------------------------------------
      800 -4.7967E+03  3.1326E+02 -4.9042E+03  5.7085E+02 -4.5000E+03 -9.9811E+02  2.3113E+01  0.0000E+00  0.0000E+00
  80.000f -4.7930E+03  0.0000E+00  2.6657E+02 -6.2197E+03  4.5000E+03  1.9862E+03  0.0000E+00  0.0000E+00  0.0000E+00
  18.757s  3.0599E+04  0.0000E+00  0.0000E+00  0.0000E+00  9.0000E+01  9.0000E+01  9.0000E+01  0.0000E+00 -4.5845E-01

  rolling -4.7967E+03  3.1653E+02 -4.9039E+03  5.7078E+02 -4.5014E+03 -9.9768E+02  2.4369E+01  0.0000E+00  0.0000E+00
 averages -4.7910E+03  0.0000E+00  2.6762E+02 -6.2204E+03  4.5014E+03  1.9867E+03  0.0000E+00  0.0000E+00  0.0000E+00
           3.0595E+04  0.0000E+00  0.0000E+00  0.0000E+00  9.0000E+01  9.0000E+01  9.0000E+01  0.0000E+00 -4.3344E-01
 ------------------------------------------------------------------------------------------------------------------------
      900 -4.7966E+03  2.9906E+02 -4.9021E+03  5.6887E+02 -4.4971E+03 -1.0006E+03  2.6710E+01  0.0000E+00  0.0000E+00
  90.000f -4.7827E+03  0.0000E+00  2.1436E+02 -6.1952E+03  4.4971E+03  1.9125E+03  0.0000E+00  0.0000E+00  0.0000E+00
  21.074s  3.0605E+04  0.0000E+00  0.0000E+00  0.0000E+00  9.0000E+01  9.0000E+01  9.0000E+01  0.0000E+00  2.5350E-01

  rolling -4.7966E+03  3.0763E+02 -4.9037E+03  5.7125E+02 -4.5012E+03 -9.9828E+02  2.4525E+01  0.0000E+00  0.0000E+00
 averages -4.7795E+03  0.0000E+00  2.1637E+02 -6.2200E+03  4.5012E+03  1.9351E+03  0.0000E+00  0.0000E+00  0.0000E+00
           3.0601E+04  0.0000E+00  0.0000E+00  0.0000E+00  9.0000E+01  9.0000E+01  9.0000E+01  0.0000E+00  3.3210E-01
 ------------------------------------------------------------------------------------------------------------------------
     1000 -4.7966E+03  3.0109E+02 -4.9048E+03  5.6782E+02 -4.4957E+03 -9.9992E+02  2.3074E+01  0.0000E+00  0.0000E+00
 100.000f -4.7910E+03  0.0000E+00  2.3528E+02 -6.1782E+03  4.4957E+03  1.9177E+03  0.0000E+00  0.0000E+00  0.0000E+00
  23.412s  3.0605E+04  0.0000E+00  0.0000E+00  0.0000E+00  9.0000E+01  9.0000E+01  9.0000E+01  0.0000E+00 -7.9913E-02

  rolling -4.7966E+03  2.9932E+02 -4.9033E+03  5.6675E+02 -4.4958E+03 -9.9899E+02  2.4726E+01  0.0000E+00  0.0000E+00
 averages -4.8083E+03  0.0000E+00  2.8810E+02 -6.1729E+03  4.4958E+03  1.9652E+03  0.0000E+00  0.0000E+00  0.0000E+00
           3.0608E+04  0.0000E+00  0.0000E+00  0.0000E+00  9.0000E+01  9.0000E+01  9.0000E+01  0.0000E+00 -1.0130E+00
 ------------------------------------------------------------------------------------------------------------------------
     1100 -4.7966E+03  3.0249E+02 -4.9052E+03  5.6691E+02 -4.5008E+03 -9.9707E+02  2.5743E+01  0.0000E+00  0.0000E+00
 110.000f -4.8184E+03  0.0000E+00  3.1868E+02 -6.1637E+03  4.5008E+03  1.9816E+03  0.0000E+00  0.0000E+00  0.0000E+00
  25.765s  3.0597E+04  0.0000E+00  0.0000E+00  0.0000E+00  9.0000E+01  9.0000E+01  9.0000E+01  0.0000E+00 -1.4983E+00

  rolling -4.7966E+03  3.0100E+02 -4.9048E+03  5.6887E+02 -4.4983E+03 -9.9974E+02  2.4310E+01  0.0000E+00  0.0000E+00
 averages -4.7900E+03  0.0000E+00  2.3182E+02 -6.1838E+03  4.4983E+03  1.9173E+03  0.0000E+00  0.0000E+00  0.0000E+00
           3.0601E+04  0.0000E+00  0.0000E+00  0.0000E+00  9.0000E+01  9.0000E+01  9.0000E+01  0.0000E+00 -2.1527E-02
 ------------------------------------------------------------------------------------------------------------------------
     1200 -4.7965E+03  3.0369E+02 -4.9043E+03  5.6950E+02 -4.4975E+03 -9.9931E+02  2.2998E+01  0.0000E+00  0.0000E+00
 120.000f -4.7911E+03  0.0000E+00  2.4188E+02 -6.1856E+03  4.4975E+03  1.9300E+03  0.0000E+00  0.0000E+00  0.0000E+00
  28.075s  3.0570E+04  0.0000E+00  0.0000E+00  0.0000E+00  9.0000E+01  9.0000E+01  9.0000E+01  0.0000E+00 -1.5951E-01

  rolling -4.7966E+03  3.0432E+02 -4.9053E+03  5.6705E+02 -4.4970E+03 -9.9961E+02  2.4218E+01  0.0000E+00  0.0000E+00
 averages -4.8048E+03  0.0000E+00  2.8110E+02 -6.1645E+03  4.4970E+03  1.9486E+03  0.0000E+00  0.0000E+00  0.0000E+00
           3.0585E+04  0.0000E+00  0.0000E+00  0.0000E+00  9.0000E+01  9.0000E+01  9.0000E+01  0.0000E+00 -8.2679E-01
 ------------------------------------------------------------------------------------------------------------------------
     1300 -4.7966E+03  3.1195E+02 -4.9051E+03  5.6982E+02 -4.4999E+03 -1.0005E+03  2.5453E+01  0.0000E+00  0.0000E+00
 130.000f -4.7905E+03  0.0000E+00  2.5350E+02 -6.1879E+03  4.4999E+03  1.9416E+03  0.0000E+00  0.0000E+00  0.0000E+00
  30.412s  3.0538E+04  0.0000E+00  0.0000E+00  0.0000E+00  9.0000E+01  9.0000E+01  9.0000E+01  0.0000E+00 -2.5114E-01

  rolling -4.7965E+03  3.0549E+02 -4.9039E+03  5.7081E+02 -4.4997E+03 -9.9914E+02  2.4106E+01  0.0000E+00  0.0000E+00
 averages -4.7840E+03  0.0000E+00  2.2525E+02 -6.1964E+03  4.4997E+03  1.9220E+03  0.0000E+00  0.0000E+00  0.0000E+00
           3.0554E+04  0.0000E+00  0.0000E+00  0.0000E+00  9.0000E+01  9.0000E+01  9.0000E+01  0.0000E+00  1.5109E-01
 ------------------------------------------------------------------------------------------------------------------------
     1400 -4.7965E+03  3.1317E+02 -4.9030E+03  5.7642E+02 -4.5030E+03 -9.9925E+02  2.2839E+01  0.0000E+00  0.0000E+00
 140.000f -4.7557E+03  0.0000E+00  1.5787E+02 -6.2491E+03  4.5030E+03  1.9039E+03  0.0000E+00  0.0000E+00  0.0000E+00
  32.737s  3.0503E+04  0.0000E+00  0.0000E+00  0.0000E+00  9.0000E+01  9.0000E+01  9.0000E+01  0.0000E+00  1.4173E+00

  rolling -4.7965E+03  3.1301E+02 -4.9042E+03  5.7248E+02 -4.5025E+03 -9.9837E+02  2.4248E+01  0.0000E+00  0.0000E+00
 averages -4.7863E+03  0.0000E+00  2.4577E+02 -6.2123E+03  4.5025E+03  1.9555E+03  0.0000E+00  0.0000E+00  0.0000E+00
           3.0521E+04  0.0000E+00  0.0000E+00  0.0000E+00  9.0000E+01  9.0000E+01  9.0000E+01  0.0000E+00 -1.0354E-01
 ------------------------------------------------------------------------------------------------------------------------
     1500 -4.7965E+03  3.1899E+02 -4.9034E+03  5.7211E+02 -4.5042E+03 -9.9790E+02  2.6560E+01  0.0000E+00  0.0000E+00
 150.000f -4.7960E+03  0.0000E+00  2.8867E+02 -6.2159E+03  4.5042E+03  2.0004E+03  0.0000E+00  0.0000E+00  0.0000E+00
  35.077s  3.0490E+04  0.0000E+00  0.0000E+00  0.0000E+00  9.0000E+01  9.0000E+01  9.0000E+01  0.0000E+00 -7.6617E-01

  rolling -4.7965E+03  3.1479E+02 -4.9026E+03  5.7539E+02 -4.5039E+03 -9.9878E+02  2.4607E+01  0.0000E+00  0.0000E+00
 averages -4.7640E+03  0.0000E+00  1.8685E+02 -6.2424E+03  4.5038E+03  1.9254E+03  0.0000E+00  0.0000E+00  0.0000E+00
           3.0494E+04  0.0000E+00  0.0000E+00  0.0000E+00  9.0000E+01  9.0000E+01  9.0000E+01  0.0000E+00  9.3818E-01
 ------------------------------------------------------------------------------------------------------------------------
 ------------------------------------------------------------------------------------------------------------------------

     step     eng_tot    temp_tot     eng_cfg     eng_vdw     eng_cou     eng_bnd     eng_ang     eng_dih     eng_tet
 time          eng_pv    temp_rot     vir_cfg     vir_vdw     vir_cou     vir_bnd     vir_ang     vir_con     vir_tet
 cpu time      volume    temp_shl     eng_shl     vir_shl       alpha        beta       gamma     vir_pmf       press

 ------------------------------------------------------------------------------------------------------------------------
     1600 -4.7965E+03  3.1562E+02 -4.9014E+03  5.7405E+02 -4.5017E+03 -9.9667E+02  2.2848E+01  0.0000E+00  0.0000E+00
 160.000f -4.7633E+03  0.0000E+00  1.9006E+02 -6.2386E+03  4.5017E+03  1.9270E+03  0.0000E+00  0.0000E+00  0.0000E+00
  37.395s  3.0479E+04  0.0000E+00  0.0000E+00  0.0000E+00  9.0000E+01  9.0000E+01  9.0000E+01  0.0000E+00  8.9420E-01

  rolling -4.7965E+03  3.1641E+02 -4.9020E+03  5.7256E+02 -4.5008E+03 -9.9825E+02  2.4542E+01  0.0000E+00  0.0000E+00
 averages -4.7752E+03  0.0000E+00  2.2570E+02 -6.2227E+03  4.5008E+03  1.9476E+03  0.0000E+00  0.0000E+00  0.0000E+00
           3.0484E+04  0.0000E+00  0.0000E+00  0.0000E+00  9.0000E+01  9.0000E+01  9.0000E+01  0.0000E+00  2.8828E-01
 ------------------------------------------------------------------------------------------------------------------------
     1700 -4.7965E+03  3.1817E+02 -4.9031E+03  5.6884E+02 -4.4981E+03 -9.9959E+02  2.5828E+01  0.0000E+00  0.0000E+00
 170.000f -4.7893E+03  0.0000E+00  2.6808E+02 -6.1975E+03  4.4981E+03  1.9675E+03  0.0000E+00  0.0000E+00  0.0000E+00
  39.737s  3.0484E+04  0.0000E+00  0.0000E+00  0.0000E+00  9.0000E+01  9.0000E+01  9.0000E+01  0.0000E+00 -4.2122E-01

  rolling -4.7965E+03  3.1725E+02 -4.9023E+03  5.7181E+02 -4.5008E+03 -9.9809E+02  2.4798E+01  0.0000E+00  0.0000E+00
 averages -4.7755E+03  0.0000E+00  2.2719E+02 -6.2211E+03  4.5008E+03  1.9475E+03  0.0000E+00  0.0000E+00  0.0000E+00
           3.0481E+04  0.0000E+00  0.0000E+00  0.0000E+00  9.0000E+01  9.0000E+01  9.0000E+01  0.0000E+00  2.7361E-01
 ------------------------------------------------------------------------------------------------------------------------
     1800 -4.7964E+03  3.1421E+02 -4.9032E+03  5.7263E+02 -4.5003E+03 -9.9855E+02  2.2987E+01  0.0000E+00  0.0000E+00
 180.000f -4.7542E+03  0.0000E+00  1.5479E+02 -6.2337E+03  4.5003E+03  1.8882E+03  0.0000E+00  0.0000E+00  0.0000E+00
  42.053s  3.0485E+04  0.0000E+00  0.0000E+00  0.0000E+00  9.0000E+01  9.0000E+01  9.0000E+01  0.0000E+00  1.4851E+00

  rolling -4.7964E+03  3.1354E+02 -4.9021E+03  5.7096E+02 -4.4998E+03 -9.9780E+02  2.4569E+01  0.0000E+00  0.0000E+00
 averages -4.7819E+03  0.0000E+00  2.3986E+02 -6.2178E+03  4.4998E+03  1.9579E+03  0.0000E+00  0.0000E+00  0.0000E+00
           3.0485E+04  0.0000E+00  0.0000E+00  0.0000E+00  9.0000E+01  9.0000E+01  9.0000E+01  0.0000E+00  5.4411E-03
 ------------------------------------------------------------------------------------------------------------------------
     1900 -4.7964E+03  3.1176E+02 -4.9047E+03  5.6584E+02 -4.4987E+03 -9.9680E+02  2.5041E+01  0.0000E+00  0.0000E+00
 190.000f -4.8258E+03  0.0000E+00  3.6029E+02 -6.1709E+03  4.4987E+03  2.0325E+03  0.0000E+00  0.0000E+00  0.0000E+00
  44.397s  3.0494E+04  0.0000E+00  0.0000E+00  0.0000E+00  9.0000E+01  9.0000E+01  9.0000E+01  0.0000E+00 -2.0998E+00

  rolling -4.7964E+03  3.1367E+02 -4.9042E+03  5.6855E+02 -4.4991E+03 -9.9783E+02  2.4196E+01  0.0000E+00  0.0000E+00
 averages -4.7937E+03  0.0000E+00  2.6924E+02 -6.1964E+03  4.4991E+03  1.9665E+03  0.0000E+00  0.0000E+00  0.0000E+00
           3.0491E+04  0.0000E+00  0.0000E+00  0.0000E+00  9.0000E+01  9.0000E+01  9.0000E+01  0.0000E+00 -5.0062E-01
 ------------------------------------------------------------------------------------------------------------------------
     2000 -4.7964E+03  3.0297E+02 -4.9037E+03  5.6974E+02 -4.4980E+03 -9.9879E+02  2.3271E+01  0.0000E+00  0.0000E+00
 200.000f -4.7774E+03  0.0000E+00  2.0127E+02 -6.2014E+03  4.4979E+03  1.9047E+03  0.0000E+00  0.0000E+00  0.0000E+00
  46.713s  3.0482E+04  0.0000E+00  0.0000E+00  0.0000E+00  9.0000E+01  9.0000E+01  9.0000E+01  0.0000E+00  5.3273E-01

  rolling -4.7964E+03  3.0577E+02 -4.9037E+03  5.6865E+02 -4.4982E+03 -9.9856E+02  2.4478E+01  0.0000E+00  0.0000E+00
 averages -4.7840E+03  0.0000E+00  2.2656E+02 -6.1945E+03  4.4982E+03  1.9228E+03  0.0000E+00  0.0000E+00  0.0000E+00
           3.0487E+04  0.0000E+00  0.0000E+00  0.0000E+00  9.0000E+01  9.0000E+01  9.0000E+01  0.0000E+00  1.3257E-01
 ------------------------------------------------------------------------------------------------------------------------
     2100 -4.7964E+03  3.0726E+02 -4.9066E+03  5.6734E+02 -4.5016E+03 -9.9774E+02  2.5430E+01  0.0000E+00  0.0000E+00
 210.000f -4.8097E+03  0.0000E+00  2.9760E+02 -6.1762E+03  4.5016E+03  1.9722E+03  0.0000E+00  0.0000E+00  0.0000E+00
  49.073s  3.0468E+04  0.0000E+00  0.0000E+00  0.0000E+00  9.0000E+01  9.0000E+01  9.0000E+01  0.0000E+00 -1.0767E+00

  rolling -4.7964E+03  3.0398E+02 -4.9048E+03  5.6691E+02 -4.4976E+03 -9.9859E+02  2.4459E+01  0.0000E+00  0.0000E+00
 averages -4.8088E+03  0.0000E+00  2.9403E+02 -6.1736E+03  4.4976E+03  1.9700E+03  0.0000E+00  0.0000E+00  0.0000E+00
           3.0478E+04  0.0000E+00  0.0000E+00  0.0000E+00  9.0000E+01  9.0000E+01  9.0000E+01  0.0000E+00 -1.0581E+00
 ------------------------------------------------------------------------------------------------------------------------
     2200 -4.7964E+03  3.1009E+02 -4.9085E+03  5.7227E+02 -4.5051E+03 -9.9928E+02  2.3651E+01  0.0000E+00  0.0000E+00
 220.000f -4.7755E+03  0.0000E+00  1.9486E+02 -6.2251E+03  4.5051E+03  1.9148E+03  0.0000E+00  0.0000E+00  0.0000E+00
  51.413s  3.0434E+04  0.0000E+00  0.0000E+00  0.0000E+00  9.0000E+01  9.0000E+01  9.0000E+01  0.0000E+00  7.3889E-01

  rolling -4.7964E+03  3.1122E+02 -4.9085E+03  5.7140E+02 -4.5070E+03 -9.9767E+02  2.4763E+01  0.0000E+00  0.0000E+00
 averages -4.7908E+03  0.0000E+00  2.4298E+02 -6.2146E+03  4.5070E+03  1.9506E+03  0.0000E+00  0.0000E+00  0.0000E+00
           3.0451E+04  0.0000E+00  0.0000E+00  0.0000E+00  9.0000E+01  9.0000E+01  9.0000E+01  0.0000E+00 -7.9181E-02
 ------------------------------------------------------------------------------------------------------------------------
     2300 -4.7964E+03  3.0046E+02 -4.9053E+03  5.7266E+02 -4.5063E+03 -9.9671E+02  2.5043E+01  0.0000E+00  0.0000E+00
 230.000f -4.8039E+03  0.0000E+00  2.7118E+02 -6.2345E+03  4.5063E+03  1.9994E+03  0.0000E+00  0.0000E+00  0.0000E+00
  53.734s  3.0397E+04  0.0000E+00  0.0000E+00  0.0000E+00  9.0000E+01  9.0000E+01  9.0000E+01  0.0000E+00 -7.1142E-01

  rolling -4.7964E+03  3.0386E+02 -4.9065E+03  5.7048E+02 -4.5033E+03 -9.9808E+02  2.4475E+01  0.0000E+00  0.0000E+00
 averages -4.8057E+03  0.0000E+00  2.7964E+02 -6.2123E+03  4.5033E+03  1.9886E+03  0.0000E+00  0.0000E+00  0.0000E+00
           3.0417E+04  0.0000E+00  0.0000E+00  0.0000E+00  9.0000E+01  9.0000E+01  9.0000E+01  0.0000E+00 -8.1248E-01
 ------------------------------------------------------------------------------------------------------------------------
 ------------------------------------------------------------------------------------------------------------------------

     step     eng_tot    temp_tot     eng_cfg     eng_vdw     eng_cou     eng_bnd     eng_ang     eng_dih     eng_tet
 time          eng_pv    temp_rot     vir_cfg     vir_vdw     vir_cou     vir_bnd     vir_ang     vir_con     vir_tet
 cpu time      volume    temp_shl     eng_shl     vir_shl       alpha        beta       gamma     vir_pmf       press

 ------------------------------------------------------------------------------------------------------------------------
     2400 -4.7964E+03  3.0619E+02 -4.9066E+03  5.7814E+02 -4.5113E+03 -9.9723E+02  2.3766E+01  0.0000E+00  0.0000E+00
 240.000f -4.7803E+03  0.0000E+00  2.0755E+02 -6.2884E+03  4.5113E+03  1.9847E+03  0.0000E+00  0.0000E+00  0.0000E+00
  56.078s  3.0360E+04  0.0000E+00  0.0000E+00  0.0000E+00  9.0000E+01  9.0000E+01  9.0000E+01  0.0000E+00  4.6852E-01

  rolling -4.7964E+03  3.0342E+02 -4.9061E+03  5.7731E+02 -4.5092E+03 -9.9891E+02  2.4672E+01  0.0000E+00  0.0000E+00
 averages -4.7620E+03  0.0000E+00  1.4861E+02 -6.2793E+03  4.5092E+03  1.9188E+03  0.0000E+00  0.0000E+00  0.0000E+00
           3.0375E+04  0.0000E+00  0.0000E+00  0.0000E+00  9.0000E+01  9.0000E+01  9.0000E+01  0.0000E+00  1.4545E+00
 ------------------------------------------------------------------------------------------------------------------------
     2500 -4.7964E+03  3.0797E+02 -4.9054E+03  5.7997E+02 -4.5128E+03 -9.9809E+02  2.5507E+01  0.0000E+00  0.0000E+00
 250.000f -4.7554E+03  0.0000E+00  1.3960E+02 -6.3135E+03  4.5128E+03  1.9403E+03  0.0000E+00  0.0000E+00  0.0000E+00
  58.402s  3.0341E+04  0.0000E+00  0.0000E+00  0.0000E+00  9.0000E+01  9.0000E+01  9.0000E+01  0.0000E+00  1.6729E+00

  rolling -4.7964E+03  3.0670E+02 -4.9059E+03  5.7719E+02 -4.5104E+03 -9.9724E+02  2.4599E+01  0.0000E+00  0.0000E+00
 averages -4.7870E+03  0.0000E+00  2.3047E+02 -6.2837E+03  4.5104E+03  2.0037E+03  0.0000E+00  0.0000E+00  0.0000E+00
           3.0351E+04  0.0000E+00  0.0000E+00  0.0000E+00  9.0000E+01  9.0000E+01  9.0000E+01  0.0000E+00  7.7678E-02
 ------------------------------------------------------------------------------------------------------------------------
     2600 -4.7964E+03  3.1281E+02 -4.9051E+03  5.7815E+02 -4.5087E+03 -9.9864E+02  2.4042E+01  0.0000E+00  0.0000E+00
 260.000f -4.7648E+03  0.0000E+00  1.7813E+02 -6.2973E+03  4.5087E+03  1.9667E+03  0.0000E+00  0.0000E+00  0.0000E+00
   1.012m  3.0349E+04  0.0000E+00  0.0000E+00  0.0000E+00  9.0000E+01  9.0000E+01  9.0000E+01  0.0000E+00  1.0678E+00

  rolling -4.7964E+03  3.1010E+02 -4.9052E+03  5.8103E+02 -4.5142E+03 -9.9672E+02  2.4729E+01  0.0000E+00  0.0000E+00
 averages -4.7554E+03  0.0000E+00  1.4451E+02 -6.3239E+03  4.5142E+03  1.9542E+03  0.0000E+00  0.0000E+00  0.0000E+00
           3.0341E+04  0.0000E+00  0.0000E+00  0.0000E+00  9.0000E+01  9.0000E+01  9.0000E+01  0.0000E+00  1.6159E+00
 ------------------------------------------------------------------------------------------------------------------------
     2700 -4.7964E+03  3.1297E+02 -4.9033E+03  5.7763E+02 -4.5112E+03 -9.9571E+02  2.6004E+01  0.0000E+00  0.0000E+00
 270.000f -4.7664E+03  0.0000E+00  1.8857E+02 -6.2870E+03  4.5112E+03  1.9644E+03  0.0000E+00  0.0000E+00  0.0000E+00
   1.051m  3.0377E+04  0.0000E+00  0.0000E+00  0.0000E+00  9.0000E+01  9.0000E+01  9.0000E+01  0.0000E+00  8.8774E-01

  rolling -4.7964E+03  3.1282E+02 -4.9041E+03  5.7616E+02 -4.5095E+03 -9.9657E+02  2.5721E+01  0.0000E+00  0.0000E+00
 averages -4.7827E+03  0.0000E+00  2.3468E+02 -6.2763E+03  4.5094E+03  2.0015E+03  0.0000E+00  0.0000E+00  0.0000E+00
           3.0363E+04  0.0000E+00  0.0000E+00  0.0000E+00  9.0000E+01  9.0000E+01  9.0000E+01  0.0000E+00  8.5801E-02
 ------------------------------------------------------------------------------------------------------------------------
     2800 -4.7964E+03  3.1846E+02 -4.9042E+03  5.7151E+02 -4.5048E+03 -9.9449E+02  2.3549E+01  0.0000E+00  0.0000E+00
 280.000f -4.8086E+03  0.0000E+00  3.2308E+02 -6.2291E+03  4.5048E+03  2.0474E+03  0.0000E+00  0.0000E+00  0.0000E+00
   1.090m  3.0427E+04  0.0000E+00  0.0000E+00  0.0000E+00  9.0000E+01  9.0000E+01  9.0000E+01  0.0000E+00 -1.3710E+00

  rolling -4.7964E+03  3.1487E+02 -4.9034E+03  5.7638E+02 -4.5067E+03 -9.9753E+02  2.4436E+01  0.0000E+00  0.0000E+00
 averages -4.7603E+03  0.0000E+00  1.7379E+02 -6.2742E+03  4.5066E+03  1.9414E+03  0.0000E+00  0.0000E+00  0.0000E+00
           3.0399E+04  0.0000E+00  0.0000E+00  0.0000E+00  9.0000E+01  9.0000E+01  9.0000E+01  0.0000E+00  1.1691E+00
 ------------------------------------------------------------------------------------------------------------------------
     2900 -4.7963E+03  3.1525E+02 -4.9031E+03  5.7208E+02 -4.5040E+03 -9.9749E+02  2.6266E+01  0.0000E+00  0.0000E+00
 290.000f -4.7631E+03  0.0000E+00  1.8369E+02 -6.2392E+03  4.5040E+03  1.9189E+03  0.0000E+00  0.0000E+00  0.0000E+00
   1.129m  3.0470E+04  0.0000E+00  0.0000E+00  0.0000E+00  9.0000E+01  9.0000E+01  9.0000E+01  0.0000E+00  9.9971E-01

  rolling -4.7964E+03  3.1755E+02 -4.9038E+03  5.7045E+02 -4.5029E+03 -9.9665E+02  2.5233E+01  0.0000E+00  0.0000E+00
 averages -4.7954E+03  0.0000E+00  2.8271E+02 -6.2222E+03  4.5028E+03  2.0020E+03  0.0000E+00  0.0000E+00  0.0000E+00
           3.0450E+04  0.0000E+00  0.0000E+00  0.0000E+00  9.0000E+01  9.0000E+01  9.0000E+01  0.0000E+00 -6.8354E-01
 ------------------------------------------------------------------------------------------------------------------------
     3000 -4.7963E+03  3.1497E+02 -4.9041E+03  5.6335E+02 -4.4914E+03 -9.9941E+02  2.3346E+01  0.0000E+00  0.0000E+00
 300.000f -4.8095E+03  0.0000E+00  3.1915E+02 -6.1590E+03  4.4914E+03  1.9868E+03  0.0000E+00  0.0000E+00  0.0000E+00
   1.167m  3.0514E+04  0.0000E+00  0.0000E+00  0.0000E+00  9.0000E+01  9.0000E+01  9.0000E+01  0.0000E+00 -1.3452E+00

  rolling -4.7963E+03  3.1317E+02 -4.9029E+03  5.6872E+02 -4.5006E+03 -9.9578E+02  2.4791E+01  0.0000E+00  0.0000E+00
 averages -4.7901E+03  0.0000E+00  2.6143E+02 -6.2081E+03  4.5006E+03  1.9690E+03  0.0000E+00  0.0000E+00  0.0000E+00
           3.0493E+04  0.0000E+00  0.0000E+00  0.0000E+00  9.0000E+01  9.0000E+01  9.0000E+01  0.0000E+00 -3.7201E-01
 ------------------------------------------------------------------------------------------------------------------------
     3100 -4.7963E+03  3.1276E+02 -4.9050E+03  5.6667E+02 -4.5011E+03 -9.9638E+02  2.5808E+01  0.0000E+00  0.0000E+00
 310.000f -4.7914E+03  0.0000E+00  2.5814E+02 -6.1856E+03  4.5011E+03  1.9426E+03  0.0000E+00  0.0000E+00  0.0000E+00
   1.207m  3.0529E+04  0.0000E+00  0.0000E+00  0.0000E+00  9.0000E+01  9.0000E+01  9.0000E+01  0.0000E+00 -3.2064E-01

  rolling -4.7963E+03  3.1362E+02 -4.9045E+03  5.6416E+02 -4.4964E+03 -9.9746E+02  2.5203E+01  0.0000E+00  0.0000E+00
 averages -4.8084E+03  0.0000E+00  3.1251E+02 -6.1648E+03  4.4963E+03  1.9809E+03  0.0000E+00  0.0000E+00  0.0000E+00
           3.0524E+04  0.0000E+00  0.0000E+00  0.0000E+00  9.0000E+01  9.0000E+01  9.0000E+01  0.0000E+00 -1.2481E+00
 ------------------------------------------------------------------------------------------------------------------------
 ------------------------------------------------------------------------------------------------------------------------

     step     eng_tot    temp_tot     eng_cfg     eng_vdw     eng_cou     eng_bnd     eng_ang     eng_dih     eng_tet
 time          eng_pv    temp_rot     vir_cfg     vir_vdw     vir_cou     vir_bnd     vir_ang     vir_con     vir_tet
 cpu time      volume    temp_shl     eng_shl     vir_shl       alpha        beta       gamma     vir_pmf       press

 ------------------------------------------------------------------------------------------------------------------------
     3200 -4.7963E+03  3.0873E+02 -4.9057E+03  5.6151E+02 -4.4947E+03 -9.9623E+02  2.3691E+01  0.0000E+00  0.0000E+00
 320.000f -4.8444E+03  0.0000E+00  4.0746E+02 -6.1351E+03  4.4947E+03  2.0479E+03  0.0000E+00  0.0000E+00  0.0000E+00
   1.246m  3.0529E+04  0.0000E+00  0.0000E+00  0.0000E+00  9.0000E+01  9.0000E+01  9.0000E+01  0.0000E+00 -2.9517E+00

  rolling -4.7963E+03  3.1028E+02 -4.9052E+03  5.6433E+02 -4.4960E+03 -9.9818E+02  2.4601E+01  0.0000E+00  0.0000E+00
 averages -4.8024E+03  0.0000E+00  2.8583E+02 -6.1622E+03  4.4959E+03  1.9521E+03  0.0000E+00  0.0000E+00  0.0000E+00
           3.0530E+04  0.0000E+00  0.0000E+00  0.0000E+00  9.0000E+01  9.0000E+01  9.0000E+01  0.0000E+00 -8.3134E-01
 ------------------------------------------------------------------------------------------------------------------------
     3300 -4.7962E+03  3.0370E+02 -4.9055E+03  5.7002E+02 -4.5023E+03 -9.9941E+02  2.6167E+01  0.0000E+00  0.0000E+00
 330.000f -4.7708E+03  0.0000E+00  1.7748E+02 -6.2067E+03  4.5023E+03  1.8819E+03  0.0000E+00  0.0000E+00  0.0000E+00
   1.285m  3.0489E+04  0.0000E+00  0.0000E+00  0.0000E+00  9.0000E+01  9.0000E+01  9.0000E+01  0.0000E+00  9.5342E-01

  rolling -4.7963E+03  3.0514E+02 -4.9053E+03  5.6571E+02 -4.4979E+03 -9.9872E+02  2.5563E+01  0.0000E+00  0.0000E+00
 averages -4.8045E+03  0.0000E+00  2.8179E+02 -6.1716E+03  4.4978E+03  1.9555E+03  0.0000E+00  0.0000E+00  0.0000E+00
           3.0510E+04  0.0000E+00  0.0000E+00  0.0000E+00  9.0000E+01  9.0000E+01  9.0000E+01  0.0000E+00 -8.2947E-01
 ------------------------------------------------------------------------------------------------------------------------
     3400 -4.7962E+03  3.0673E+02 -4.9072E+03  5.6834E+02 -4.4976E+03 -1.0004E+03  2.2433E+01  0.0000E+00  0.0000E+00
 340.000f -4.8066E+03  0.0000E+00  2.8562E+02 -6.1855E+03  4.4976E+03  1.9735E+03  0.0000E+00  0.0000E+00  0.0000E+00
   1.323m  3.0446E+04  0.0000E+00  0.0000E+00  0.0000E+00  9.0000E+01  9.0000E+01  9.0000E+01  0.0000E+00 -8.7700E-01

  rolling -4.7962E+03  3.0340E+02 -4.9058E+03  5.6859E+02 -4.5002E+03 -9.9819E+02  2.4076E+01  0.0000E+00  0.0000E+00
 averages -4.8057E+03  0.0000E+00  2.8093E+02 -6.1896E+03  4.5002E+03  1.9703E+03  0.0000E+00  0.0000E+00  0.0000E+00
           3.0470E+04  0.0000E+00  0.0000E+00  0.0000E+00  9.0000E+01  9.0000E+01  9.0000E+01  0.0000E+00 -8.3962E-01
 ------------------------------------------------------------------------------------------------------------------------
     3500 -4.7961E+03  3.0746E+02 -4.9070E+03  5.7649E+02 -4.5118E+03 -9.9850E+02  2.6772E+01  0.0000E+00  0.0000E+00
 350.000f -4.7683E+03  0.0000E+00  1.7257E+02 -6.2626E+03  4.5118E+03  1.9234E+03  0.0000E+00  0.0000E+00  0.0000E+00
   1.362m  3.0385E+04  0.0000E+00  0.0000E+00  0.0000E+00  9.0000E+01  9.0000E+01  9.0000E+01  0.0000E+00  1.0919E+00

  rolling -4.7962E+03  3.0584E+02 -4.9067E+03  5.7342E+02 -4.5069E+03 -9.9809E+02  2.4871E+01  0.0000E+00  0.0000E+00
 averages -4.7862E+03  0.0000E+00  2.2423E+02 -6.2329E+03  4.5069E+03  1.9503E+03  0.0000E+00  0.0000E+00  0.0000E+00
           3.0415E+04  0.0000E+00  0.0000E+00  0.0000E+00  9.0000E+01  9.0000E+01  9.0000E+01  0.0000E+00  1.7426E-01
 ------------------------------------------------------------------------------------------------------------------------
     3600 -4.7961E+03  3.1140E+02 -4.9076E+03  5.7338E+02 -4.5060E+03 -9.9686E+02  2.1799E+01  0.0000E+00  0.0000E+00
 360.000f -4.8116E+03  0.0000E+00  3.0822E+02 -6.2376E+03  4.5059E+03  2.0399E+03  0.0000E+00  0.0000E+00  0.0000E+00
   1.401m  3.0337E+04  0.0000E+00  0.0000E+00  0.0000E+00  9.0000E+01  9.0000E+01  9.0000E+01  0.0000E+00 -1.2108E+00

  rolling -4.7961E+03  3.0981E+02 -4.9075E+03  5.7395E+02 -4.5072E+03 -9.9871E+02  2.4542E+01  0.0000E+00  0.0000E+00
 averages -4.7898E+03  0.0000E+00  2.4027E+02 -6.2410E+03  4.5072E+03  1.9740E+03  0.0000E+00  0.0000E+00  0.0000E+00
           3.0361E+04  0.0000E+00  0.0000E+00  0.0000E+00  9.0000E+01  9.0000E+01  9.0000E+01  0.0000E+00 -5.1686E-02
 ------------------------------------------------------------------------------------------------------------------------
     3700 -4.7961E+03  3.1051E+02 -4.9064E+03  5.7969E+02 -4.5149E+03 -9.9810E+02  2.6858E+01  0.0000E+00  0.0000E+00
 370.000f -4.7526E+03  0.0000E+00  1.3315E+02 -6.3003E+03  4.5149E+03  1.9186E+03  0.0000E+00  0.0000E+00  0.0000E+00
   1.440m  3.0291E+04  0.0000E+00  0.0000E+00  0.0000E+00  9.0000E+01  9.0000E+01  9.0000E+01  0.0000E+00  1.8219E+00

  rolling -4.7961E+03  3.0991E+02 -4.9066E+03  5.7795E+02 -4.5108E+03 -9.9863E+02  2.4856E+01  0.0000E+00  0.0000E+00
 averages -4.7599E+03  0.0000E+00  1.5336E+02 -6.2822E+03  4.5108E+03  1.9247E+03  0.0000E+00  0.0000E+00  0.0000E+00
           3.0310E+04  0.0000E+00  0.0000E+00  0.0000E+00  9.0000E+01  9.0000E+01  9.0000E+01  0.0000E+00  1.4618E+00
 ------------------------------------------------------------------------------------------------------------------------
     3800 -4.7961E+03  3.0881E+02 -4.9047E+03  5.7861E+02 -4.5075E+03 -9.9874E+02  2.2921E+01  0.0000E+00  0.0000E+00
 380.000f -4.7636E+03  0.0000E+00  1.6788E+02 -6.3007E+03  4.5075E+03  1.9611E+03  0.0000E+00  0.0000E+00  0.0000E+00
   1.479m  3.0276E+04  0.0000E+00  0.0000E+00  0.0000E+00  9.0000E+01  9.0000E+01  9.0000E+01  0.0000E+00  1.1955E+00

  rolling -4.7961E+03  3.0795E+02 -4.9050E+03  5.7764E+02 -4.5098E+03 -9.9787E+02  2.5003E+01  0.0000E+00  0.0000E+00
 averages -4.7806E+03  0.0000E+00  2.1675E+02 -6.2865E+03  4.5097E+03  1.9935E+03  0.0000E+00  0.0000E+00  0.0000E+00
           3.0283E+04  0.0000E+00  0.0000E+00  0.0000E+00  9.0000E+01  9.0000E+01  9.0000E+01  0.0000E+00  3.3319E-01
 ------------------------------------------------------------------------------------------------------------------------
     3900 -4.7961E+03  3.1503E+02 -4.9058E+03  5.7836E+02 -4.5120E+03 -9.9919E+02  2.6995E+01  0.0000E+00  0.0000E+00
 390.000f -4.7520E+03  0.0000E+00  1.4184E+02 -6.3031E+03  4.5120E+03  1.9330E+03  0.0000E+00  0.0000E+00  0.0000E+00
   1.518m  3.0285E+04  0.0000E+00  0.0000E+00  0.0000E+00  9.0000E+01  9.0000E+01  9.0000E+01  0.0000E+00  1.7311E+00

  rolling -4.7961E+03  3.0970E+02 -4.9044E+03  5.8079E+02 -4.5132E+03 -9.9751E+02  2.5476E+01  0.0000E+00  0.0000E+00
 averages -4.7525E+03  0.0000E+00  1.3727E+02 -6.3233E+03  4.5132E+03  1.9473E+03  0.0000E+00  0.0000E+00  0.0000E+00
           3.0277E+04  0.0000E+00  0.0000E+00  0.0000E+00  9.0000E+01  9.0000E+01  9.0000E+01  0.0000E+00  1.7402E+00
 ------------------------------------------------------------------------------------------------------------------------
 ------------------------------------------------------------------------------------------------------------------------

     step     eng_tot    temp_tot     eng_cfg     eng_vdw     eng_cou     eng_bnd     eng_ang     eng_dih     eng_tet
 time          eng_pv    temp_rot     vir_cfg     vir_vdw     vir_cou     vir_bnd     vir_ang     vir_con     vir_tet
 cpu time      volume    temp_shl     eng_shl     vir_shl       alpha        beta       gamma     vir_pmf       press

 ------------------------------------------------------------------------------------------------------------------------
     4000 -4.7961E+03  3.1332E+02 -4.9041E+03  5.7402E+02 -4.5047E+03 -9.9668E+02  2.3236E+01  0.0000E+00  0.0000E+00
 400.000f -4.7834E+03  0.0000E+00  2.3780E+02 -6.2627E+03  4.5047E+03  1.9958E+03  0.0000E+00  0.0000E+00  0.0000E+00
   1.557m  3.0318E+04  0.0000E+00  0.0000E+00  0.0000E+00  9.0000E+01  9.0000E+01  9.0000E+01  0.0000E+00  3.8262E-02

  rolling -4.7961E+03  3.1304E+02 -4.9045E+03  5.7396E+02 -4.5071E+03 -9.9699E+02  2.5673E+01  0.0000E+00  0.0000E+00
 averages -4.7909E+03  0.0000E+00  2.5857E+02 -6.2624E+03  4.5071E+03  2.0138E+03  0.0000E+00  0.0000E+00  0.0000E+00
           3.0303E+04  0.0000E+00  0.0000E+00  0.0000E+00  9.0000E+01  9.0000E+01  9.0000E+01  0.0000E+00 -3.2649E-01
 ------------------------------------------------------------------------------------------------------------------------
     4100 -4.7961E+03  3.1899E+02 -4.9063E+03  5.6928E+02 -4.5069E+03 -9.9613E+02  2.7514E+01  0.0000E+00  0.0000E+00
 410.000f -4.8115E+03  0.0000E+00  3.2670E+02 -6.2179E+03  4.5069E+03  2.0377E+03  0.0000E+00  0.0000E+00  0.0000E+00
   1.597m  3.0362E+04  0.0000E+00  0.0000E+00  0.0000E+00  9.0000E+01  9.0000E+01  9.0000E+01  0.0000E+00 -1.4297E+00

  rolling -4.7961E+03  3.1708E+02 -4.9054E+03  5.7371E+02 -4.5068E+03 -9.9814E+02  2.5817E+01  0.0000E+00  0.0000E+00
 averages -4.7602E+03  0.0000E+00  1.7159E+02 -6.2596E+03  4.5068E+03  1.9244E+03  0.0000E+00  0.0000E+00  0.0000E+00
           3.0337E+04  0.0000E+00  0.0000E+00  0.0000E+00  9.0000E+01  9.0000E+01  9.0000E+01  0.0000E+00  1.2389E+00
 ------------------------------------------------------------------------------------------------------------------------
     4200 -4.7960E+03  3.1633E+02 -4.9066E+03  5.6886E+02 -4.5015E+03 -9.9693E+02  2.3025E+01  0.0000E+00  0.0000E+00
 420.000f -4.7816E+03  0.0000E+00  2.3073E+02 -6.2088E+03  4.5015E+03  1.9380E+03  0.0000E+00  0.0000E+00  0.0000E+00
   1.635m  3.0397E+04  0.0000E+00  0.0000E+00  0.0000E+00  9.0000E+01  9.0000E+01  9.0000E+01  0.0000E+00  2.0078E-01

  rolling -4.7960E+03  3.1752E+02 -4.9063E+03  5.6696E+02 -4.5006E+03 -9.9767E+02  2.5054E+01  0.0000E+00  0.0000E+00
 averages -4.8064E+03  0.0000E+00  3.0837E+02 -6.1943E+03  4.5006E+03  2.0021E+03  0.0000E+00  0.0000E+00  0.0000E+00
           3.0382E+04  0.0000E+00  0.0000E+00  0.0000E+00  9.0000E+01  9.0000E+01  9.0000E+01  0.0000E+00 -1.1306E+00
 ------------------------------------------------------------------------------------------------------------------------
     4300 -4.7960E+03  3.1219E+02 -4.9077E+03  5.6378E+02 -4.4987E+03 -1.0000E+03  2.7217E+01  0.0000E+00  0.0000E+00
 430.000f -4.8014E+03  0.0000E+00  2.7909E+02 -6.1561E+03  4.4986E+03  1.9365E+03  0.0000E+00  0.0000E+00  0.0000E+00
   1.674m  3.0424E+04  0.0000E+00  0.0000E+00  0.0000E+00  9.0000E+01  9.0000E+01  9.0000E+01  0.0000E+00 -6.9221E-01

  rolling -4.7960E+03  3.1463E+02 -4.9072E+03  5.6799E+02 -4.5026E+03 -9.9821E+02  2.5577E+01  0.0000E+00  0.0000E+00
 averages -4.7892E+03  0.0000E+00  2.4845E+02 -6.1981E+03  4.5026E+03  1.9439E+03  0.0000E+00  0.0000E+00  0.0000E+00
           3.0411E+04  0.0000E+00  0.0000E+00  0.0000E+00  9.0000E+01  9.0000E+01  9.0000E+01  0.0000E+00 -1.2894E-01
 ------------------------------------------------------------------------------------------------------------------------
     4400 -4.7960E+03  3.0893E+02 -4.9094E+03  5.6730E+02 -4.4981E+03 -1.0007E+03  2.2100E+01  0.0000E+00  0.0000E+00
 440.000f -4.7813E+03  0.0000E+00  2.0739E+02 -6.1848E+03  4.4981E+03  1.8940E+03  0.0000E+00  0.0000E+00  0.0000E+00
   1.713m  3.0425E+04  0.0000E+00  0.0000E+00  0.0000E+00  9.0000E+01  9.0000E+01  9.0000E+01  0.0000E+00  5.0678E-01

  rolling -4.7960E+03  3.0917E+02 -4.9080E+03  5.6402E+02 -4.4989E+03 -9.9787E+02  2.4713E+01  0.0000E+00  0.0000E+00
 averages -4.8255E+03  0.0000E+00  3.4453E+02 -6.1556E+03  4.4989E+03  2.0013E+03  0.0000E+00  0.0000E+00  0.0000E+00
           3.0429E+04  0.0000E+00  0.0000E+00  0.0000E+00  9.0000E+01  9.0000E+01  9.0000E+01  0.0000E+00 -1.8656E+00
 ------------------------------------------------------------------------------------------------------------------------
     4500 -4.7960E+03  3.0285E+02 -4.9095E+03  5.6365E+02 -4.5050E+03 -9.9527E+02  2.7065E+01  0.0000E+00  0.0000E+00
 450.000f -4.8621E+03  0.0000E+00  4.3751E+02 -6.1533E+03  4.5050E+03  2.0859E+03  0.0000E+00  0.0000E+00  0.0000E+00
   1.752m  3.0412E+04  0.0000E+00  0.0000E+00  0.0000E+00  9.0000E+01  9.0000E+01  9.0000E+01  0.0000E+00 -3.5619E+00

  rolling -4.7960E+03  3.0643E+02 -4.9098E+03  5.6610E+02 -4.5019E+03 -9.9907E+02  2.5148E+01  0.0000E+00  0.0000E+00
 averages -4.8023E+03  0.0000E+00  2.6443E+02 -6.1743E+03  4.5019E+03  1.9369E+03  0.0000E+00  0.0000E+00  0.0000E+00
           3.0419E+04  0.0000E+00  0.0000E+00  0.0000E+00  9.0000E+01  9.0000E+01  9.0000E+01  0.0000E+00 -5.1493E-01
 ------------------------------------------------------------------------------------------------------------------------
     4600 -4.7960E+03  2.9797E+02 -4.9089E+03  5.7207E+02 -4.5034E+03 -9.9894E+02  2.1368E+01  0.0000E+00  0.0000E+00
 460.000f -4.7821E+03  0.0000E+00  1.9010E+02 -6.2360E+03  4.5034E+03  1.9227E+03  0.0000E+00  0.0000E+00  0.0000E+00
   1.790m  3.0364E+04  0.0000E+00  0.0000E+00  0.0000E+00  9.0000E+01  9.0000E+01  9.0000E+01  0.0000E+00  6.6214E-01

  rolling -4.7960E+03  2.9967E+02 -4.9091E+03  5.6758E+02 -4.5014E+03 -9.9950E+02  2.4221E+01  0.0000E+00  0.0000E+00
 averages -4.8040E+03  0.0000E+00  2.5861E+02 -6.1928E+03  4.5014E+03  1.9500E+03  0.0000E+00  0.0000E+00  0.0000E+00
           3.0388E+04  0.0000E+00  0.0000E+00  0.0000E+00  9.0000E+01  9.0000E+01  9.0000E+01  0.0000E+00 -5.0341E-01
 ------------------------------------------------------------------------------------------------------------------------
     4700 -4.7959E+03  3.0273E+02 -4.9096E+03  5.6988E+02 -4.5076E+03 -9.9916E+02  2.7215E+01  0.0000E+00  0.0000E+00
 470.000f -4.8052E+03  0.0000E+00  2.6637E+02 -6.2174E+03  4.5076E+03  1.9762E+03  0.0000E+00  0.0000E+00  0.0000E+00
   1.829m  3.0319E+04  0.0000E+00  0.0000E+00  0.0000E+00  9.0000E+01  9.0000E+01  9.0000E+01  0.0000E+00 -5.9937E-01

  rolling -4.7959E+03  2.9815E+02 -4.9086E+03  5.7074E+02 -4.5055E+03 -9.9882E+02  2.4913E+01  0.0000E+00  0.0000E+00
 averages -4.8015E+03  0.0000E+00  2.4977E+02 -6.2246E+03  4.5054E+03  1.9689E+03  0.0000E+00  0.0000E+00  0.0000E+00
           3.0342E+04  0.0000E+00  0.0000E+00  0.0000E+00  9.0000E+01  9.0000E+01  9.0000E+01  0.0000E+00 -3.7157E-01
 ------------------------------------------------------------------------------------------------------------------------
 ------------------------------------------------------------------------------------------------------------------------

     step     eng_tot    temp_tot     eng_cfg     eng_vdw     eng_cou     eng_bnd     eng_ang     eng_dih     eng_tet
 time          eng_pv    temp_rot     vir_cfg     vir_vdw     vir_cou     vir_bnd     vir_ang     vir_con     vir_tet
 cpu time      volume    temp_shl     eng_shl     vir_shl       alpha        beta       gamma     vir_pmf       press

 ------------------------------------------------------------------------------------------------------------------------
     4800 -4.7959E+03  3.1000E+02 -4.9099E+03  5.7841E+02 -4.5103E+03 -1.0006E+03  2.2614E+01  0.0000E+00  0.0000E+00
 480.000f -4.7399E+03  0.0000E+00  8.3724E+01 -6.3007E+03  4.5103E+03  1.8741E+03  0.0000E+00  0.0000E+00  0.0000E+00
   1.868m  3.0261E+04  0.0000E+00  0.0000E+00  0.0000E+00  9.0000E+01  9.0000E+01  9.0000E+01  0.0000E+00  2.6777E+00

  rolling -4.7959E+03  3.0708E+02 -4.9101E+03  5.7454E+02 -4.5116E+03 -9.9766E+02  2.4585E+01  0.0000E+00  0.0000E+00
 averages -4.7904E+03  0.0000E+00  2.2884E+02 -6.2626E+03  4.5116E+03  1.9799E+03  0.0000E+00  0.0000E+00  0.0000E+00
           3.0290E+04  0.0000E+00  0.0000E+00  0.0000E+00  9.0000E+01  9.0000E+01  9.0000E+01  0.0000E+00  1.1175E-01
 ------------------------------------------------------------------------------------------------------------------------
     4900 -4.7959E+03  3.0812E+02 -4.9062E+03  5.7565E+02 -4.5133E+03 -9.9604E+02  2.7480E+01  0.0000E+00  0.0000E+00
 490.000f -4.8063E+03  0.0000E+00  2.9015E+02 -6.2781E+03  4.5133E+03  2.0550E+03  0.0000E+00  0.0000E+00  0.0000E+00
   1.907m  3.0229E+04  0.0000E+00  0.0000E+00  0.0000E+00  9.0000E+01  9.0000E+01  9.0000E+01  0.0000E+00 -9.4391E-01

  rolling -4.7959E+03  3.0688E+02 -4.9073E+03  5.7646E+02 -4.5116E+03 -9.9795E+02  2.5804E+01  0.0000E+00  0.0000E+00
 averages -4.7820E+03  0.0000E+00  2.1195E+02 -6.2844E+03  4.5116E+03  1.9848E+03  0.0000E+00  0.0000E+00  0.0000E+00
           3.0244E+04  0.0000E+00  0.0000E+00  0.0000E+00  9.0000E+01  9.0000E+01  9.0000E+01  0.0000E+00  4.0251E-01
 ------------------------------------------------------------------------------------------------------------------------
     5000 -4.7958E+03  3.1993E+02 -4.9076E+03  5.8148E+02 -4.5171E+03 -9.9546E+02  2.3513E+01  0.0000E+00  0.0000E+00
 500.000f -4.7595E+03  0.0000E+00  1.6828E+02 -6.3262E+03  4.5171E+03  1.9774E+03  0.0000E+00  0.0000E+00  0.0000E+00
   1.946m  3.0207E+04  0.0000E+00  0.0000E+00  0.0000E+00  9.0000E+01  9.0000E+01  9.0000E+01  0.0000E+00  1.3399E+00

  rolling -4.7958E+03  3.1469E+02 -4.9071E+03  5.7997E+02 -4.5136E+03 -9.9828E+02  2.4827E+01  0.0000E+00  0.0000E+00
 averages -4.7516E+03  0.0000E+00  1.3623E+02 -6.3163E+03  4.5136E+03  1.9389E+03  0.0000E+00  0.0000E+00  0.0000E+00
           3.0213E+04  0.0000E+00  0.0000E+00  0.0000E+00  9.0000E+01  9.0000E+01  9.0000E+01  0.0000E+00  1.8288E+00
 ------------------------------------------------------------------------------------------------------------------------
     5100 -4.7958E+03  3.1793E+02 -4.9053E+03  5.7532E+02 -4.5093E+03 -9.9883E+02  2.7530E+01  0.0000E+00  0.0000E+00
 510.000f -4.7783E+03  0.0000E+00  2.2789E+02 -6.2605E+03  4.5093E+03  1.9791E+03  0.0000E+00  0.0000E+00  0.0000E+00
   1.986m  3.0217E+04  0.0000E+00  0.0000E+00  0.0000E+00  9.0000E+01  9.0000E+01  9.0000E+01  0.0000E+00  2.7283E-01

  rolling -4.7958E+03  3.1908E+02 -4.9063E+03  5.7687E+02 -4.5129E+03 -9.9705E+02  2.6707E+01  0.0000E+00  0.0000E+00
 averages -4.7799E+03  0.0000E+00  2.3186E+02 -6.2790E+03  4.5129E+03  1.9980E+03  0.0000E+00  0.0000E+00  0.0000E+00
           3.0212E+04  0.0000E+00  0.0000E+00  0.0000E+00  9.0000E+01  9.0000E+01  9.0000E+01  0.0000E+00  2.1906E-01
 ------------------------------------------------------------------------------------------------------------------------
     5200 -4.7958E+03  3.1582E+02 -4.9045E+03  5.7495E+02 -4.5047E+03 -9.9896E+02  2.4177E+01  0.0000E+00  0.0000E+00
 520.000f -4.7502E+03  0.0000E+00  1.4181E+02 -6.2536E+03  4.5047E+03  1.8907E+03  0.0000E+00  0.0000E+00  0.0000E+00
   2.024m  3.0240E+04  0.0000E+00  0.0000E+00  0.0000E+00  9.0000E+01  9.0000E+01  9.0000E+01  0.0000E+00  1.7449E+00

  rolling -4.7958E+03  3.1726E+02 -4.9049E+03  5.7692E+02 -4.5088E+03 -9.9771E+02  2.4625E+01  0.0000E+00  0.0000E+00
 averages -4.7582E+03  0.0000E+00  1.6745E+02 -6.2728E+03  4.5088E+03  1.9314E+03  0.0000E+00  0.0000E+00  0.0000E+00
           3.0226E+04  0.0000E+00  0.0000E+00  0.0000E+00  9.0000E+01  9.0000E+01  9.0000E+01  0.0000E+00  1.3177E+00
 ------------------------------------------------------------------------------------------------------------------------
     5300 -4.7958E+03  3.1102E+02 -4.9038E+03  5.6949E+02 -4.5021E+03 -9.9830E+02  2.7076E+01  0.0000E+00  0.0000E+00
 530.000f -4.7931E+03  0.0000E+00  2.6341E+02 -6.1979E+03  4.5021E+03  1.9592E+03  0.0000E+00  0.0000E+00  0.0000E+00
   2.063m  3.0278E+04  0.0000E+00  0.0000E+00  0.0000E+00  9.0000E+01  9.0000E+01  9.0000E+01  0.0000E+00 -4.3818E-01

  rolling -4.7958E+03  3.1333E+02 -4.9041E+03  5.7024E+02 -4.5037E+03 -9.9739E+02  2.6788E+01  0.0000E+00  0.0000E+00
 averages -4.8010E+03  0.0000E+00  2.9075E+02 -6.2077E+03  4.5037E+03  1.9947E+03  0.0000E+00  0.0000E+00  0.0000E+00
           3.0262E+04  0.0000E+00  0.0000E+00  0.0000E+00  9.0000E+01  9.0000E+01  9.0000E+01  0.0000E+00 -8.8330E-01
 ------------------------------------------------------------------------------------------------------------------------
     5400 -4.7958E+03  3.0932E+02 -4.9046E+03  5.6710E+02 -4.4995E+03 -9.9652E+02  2.4263E+01  0.0000E+00  0.0000E+00
 540.000f -4.8110E+03  0.0000E+00  3.1132E+02 -6.1690E+03  4.4995E+03  1.9809E+03  0.0000E+00  0.0000E+00  0.0000E+00
   2.102m  3.0310E+04  0.0000E+00  0.0000E+00  0.0000E+00  9.0000E+01  9.0000E+01  9.0000E+01  0.0000E+00 -1.2933E+00

  rolling -4.7958E+03  3.1085E+02 -4.9045E+03  5.7017E+02 -4.4994E+03 -9.9943E+02  2.4181E+01  0.0000E+00  0.0000E+00
 averages -4.7742E+03  0.0000E+00  2.0442E+02 -6.2012E+03  4.4994E+03  1.9062E+03  0.0000E+00  0.0000E+00  0.0000E+00
           3.0292E+04  0.0000E+00  0.0000E+00  0.0000E+00  9.0000E+01  9.0000E+01  9.0000E+01  0.0000E+00  5.8636E-01
 ------------------------------------------------------------------------------------------------------------------------
     5500 -4.7958E+03  3.0657E+02 -4.9052E+03  5.6481E+02 -4.4975E+03 -9.9948E+02  2.6927E+01  0.0000E+00  0.0000E+00
 550.000f -4.8036E+03  0.0000E+00  2.8221E+02 -6.1479E+03  4.4975E+03  1.9327E+03  0.0000E+00  0.0000E+00  0.0000E+00
   2.141m  3.0325E+04  0.0000E+00  0.0000E+00  0.0000E+00  9.0000E+01  9.0000E+01  9.0000E+01  0.0000E+00 -8.2338E-01

  rolling -4.7958E+03  3.1036E+02 -4.9058E+03  5.6384E+02 -4.4974E+03 -9.9890E+02  2.6612E+01  0.0000E+00  0.0000E+00
 averages -4.8175E+03  0.0000E+00  3.2946E+02 -6.1383E+03  4.4974E+03  1.9704E+03  0.0000E+00  0.0000E+00  0.0000E+00
           3.0321E+04  0.0000E+00  0.0000E+00  0.0000E+00  9.0000E+01  9.0000E+01  9.0000E+01  0.0000E+00 -1.5944E+00
 ------------------------------------------------------------------------------------------------------------------------
 ------------------------------------------------------------------------------------------------------------------------

     step     eng_tot    temp_tot     eng_cfg     eng_vdw     eng_cou     eng_bnd     eng_ang     eng_dih     eng_tet
 time          eng_pv    temp_rot     vir_cfg     vir_vdw     vir_cou     vir_bnd     vir_ang     vir_con     vir_tet
 cpu time      volume    temp_shl     eng_shl     vir_shl       alpha        beta       gamma     vir_pmf       press

 ------------------------------------------------------------------------------------------------------------------------
     5600 -4.7958E+03  3.0464E+02 -4.9057E+03  5.6457E+02 -4.4945E+03 -1.0000E+03  2.4213E+01  0.0000E+00  0.0000E+00
 560.000f -4.8058E+03  0.0000E+00  2.8352E+02 -6.1462E+03  4.4945E+03  1.9352E+03  0.0000E+00  0.0000E+00  0.0000E+00
   2.180m  3.0319E+04  0.0000E+00  0.0000E+00  0.0000E+00  9.0000E+01  9.0000E+01  9.0000E+01  0.0000E+00 -8.7214E-01

  rolling -4.7958E+03  3.0605E+02 -4.9057E+03  5.6609E+02 -4.4963E+03 -9.9942E+02  2.3922E+01  0.0000E+00  0.0000E+00
 averages -4.7937E+03  0.0000E+00  2.5000E+02 -6.1604E+03  4.4963E+03  1.9141E+03  0.0000E+00  0.0000E+00  0.0000E+00
           3.0322E+04  0.0000E+00  0.0000E+00  0.0000E+00  9.0000E+01  9.0000E+01  9.0000E+01  0.0000E+00 -2.7066E-01
 ------------------------------------------------------------------------------------------------------------------------
     5700 -4.7958E+03  3.0330E+02 -4.9056E+03  5.6876E+02 -4.5019E+03 -9.9839E+02  2.5924E+01  0.0000E+00  0.0000E+00
 570.000f -4.7895E+03  0.0000E+00  2.3240E+02 -6.1894E+03  4.5019E+03  1.9199E+03  0.0000E+00  0.0000E+00  0.0000E+00
   2.218m  3.0288E+04  0.0000E+00  0.0000E+00  0.0000E+00  9.0000E+01  9.0000E+01  9.0000E+01  0.0000E+00 -1.3318E-03

  rolling -4.7958E+03  3.0566E+02 -4.9064E+03  5.6506E+02 -4.4985E+03 -9.9886E+02  2.5933E+01  0.0000E+00  0.0000E+00
 averages -4.8202E+03  0.0000E+00  3.2685E+02 -6.1528E+03  4.4985E+03  1.9811E+03  0.0000E+00  0.0000E+00  0.0000E+00
           3.0307E+04  0.0000E+00  0.0000E+00  0.0000E+00  9.0000E+01  9.0000E+01  9.0000E+01  0.0000E+00 -1.6123E+00
 ------------------------------------------------------------------------------------------------------------------------
     5800 -4.7958E+03  3.0685E+02 -4.9065E+03  5.6783E+02 -4.4995E+03 -9.9820E+02  2.3372E+01  0.0000E+00  0.0000E+00
 580.000f -4.8168E+03  0.0000E+00  3.1832E+02 -6.1885E+03  4.4995E+03  2.0073E+03  0.0000E+00  0.0000E+00  0.0000E+00
   2.257m  3.0248E+04  0.0000E+00  0.0000E+00  0.0000E+00  9.0000E+01  9.0000E+01  9.0000E+01  0.0000E+00 -1.4511E+00

  rolling -4.7958E+03  3.0549E+02 -4.9063E+03  5.6976E+02 -4.5001E+03 -9.9941E+02  2.3404E+01  0.0000E+00  0.0000E+00
 averages -4.7852E+03  0.0000E+00  2.2166E+02 -6.2021E+03  4.5001E+03  1.9237E+03  0.0000E+00  0.0000E+00  0.0000E+00
           3.0267E+04  0.0000E+00  0.0000E+00  0.0000E+00  9.0000E+01  9.0000E+01  9.0000E+01  0.0000E+00  2.1480E-01
 ------------------------------------------------------------------------------------------------------------------------
     5900 -4.7957E+03  3.1126E+02 -4.9073E+03  5.7493E+02 -4.5104E+03 -9.9785E+02  2.6077E+01  0.0000E+00  0.0000E+00
 590.000f -4.7702E+03  0.0000E+00  1.8481E+02 -6.2647E+03  4.5104E+03  1.9391E+03  0.0000E+00  0.0000E+00  0.0000E+00
   2.296m  3.0190E+04  0.0000E+00  0.0000E+00  0.0000E+00  9.0000E+01  9.0000E+01  9.0000E+01  0.0000E+00  9.3606E-01

  rolling -4.7957E+03  3.0990E+02 -4.9072E+03  5.6984E+02 -4.5048E+03 -9.9770E+02  2.5423E+01  0.0000E+00  0.0000E+00
 averages -4.8038E+03  0.0000E+00  2.8312E+02 -6.2121E+03  4.5048E+03  1.9905E+03  0.0000E+00  0.0000E+00  0.0000E+00
           3.0220E+04  0.0000E+00  0.0000E+00  0.0000E+00  9.0000E+01  9.0000E+01  9.0000E+01  0.0000E+00 -7.9722E-01
 ------------------------------------------------------------------------------------------------------------------------
     6000 -4.7957E+03  3.0902E+02 -4.9057E+03  5.7237E+02 -4.5040E+03 -9.9859E+02  2.4548E+01  0.0000E+00  0.0000E+00
 600.000f -4.7929E+03  0.0000E+00  2.5336E+02 -6.2443E+03  4.5040E+03  1.9937E+03  0.0000E+00  0.0000E+00  0.0000E+00
   2.334m  3.0142E+04  0.0000E+00  0.0000E+00  0.0000E+00  9.0000E+01  9.0000E+01  9.0000E+01  0.0000E+00 -2.9112E-01

  rolling -4.7957E+03  3.1152E+02 -4.9070E+03  5.7508E+02 -4.5076E+03 -9.9820E+02  2.3805E+01  0.0000E+00  0.0000E+00
 averages -4.7695E+03  0.0000E+00  1.8416E+02 -6.2681E+03  4.5076E+03  1.9446E+03  0.0000E+00  0.0000E+00  0.0000E+00
           3.0164E+04  0.0000E+00  0.0000E+00  0.0000E+00  9.0000E+01  9.0000E+01  9.0000E+01  0.0000E+00  9.5153E-01
 ------------------------------------------------------------------------------------------------------------------------
     6100 -4.7956E+03  3.1594E+02 -4.9079E+03  5.7611E+02 -4.5115E+03 -9.9902E+02  2.6556E+01  0.0000E+00  0.0000E+00
 610.000f -4.7563E+03  0.0000E+00  1.5042E+02 -6.2807E+03  4.5115E+03  1.9196E+03  0.0000E+00  0.0000E+00  0.0000E+00
   2.374m  3.0097E+04  0.0000E+00  0.0000E+00  0.0000E+00  9.0000E+01  9.0000E+01  9.0000E+01  0.0000E+00  1.6040E+00

  rolling -4.7957E+03  3.1248E+02 -4.9067E+03  5.7314E+02 -4.5083E+03 -9.9764E+02  2.6046E+01  0.0000E+00  0.0000E+00
 averages -4.7887E+03  0.0000E+00  2.4418E+02 -6.2527E+03  4.5083E+03  1.9886E+03  0.0000E+00  0.0000E+00  0.0000E+00
           3.0120E+04  0.0000E+00  0.0000E+00  0.0000E+00  9.0000E+01  9.0000E+01  9.0000E+01  0.0000E+00 -8.4027E-02
 ------------------------------------------------------------------------------------------------------------------------
     6200 -4.7956E+03  3.1074E+02 -4.9064E+03  5.6941E+02 -4.5058E+03 -9.9589E+02  2.5785E+01  0.0000E+00  0.0000E+00
 620.000f -4.8190E+03  0.0000E+00  3.3287E+02 -6.2221E+03  4.5057E+03  2.0492E+03  0.0000E+00  0.0000E+00  0.0000E+00
   2.413m  3.0071E+04  0.0000E+00  0.0000E+00  0.0000E+00  9.0000E+01  9.0000E+01  9.0000E+01  0.0000E+00 -1.6624E+00

  rolling -4.7956E+03  3.1640E+02 -4.9082E+03  5.7351E+02 -4.5087E+03 -9.9761E+02  2.4614E+01  0.0000E+00  0.0000E+00
 averages -4.7753E+03  0.0000E+00  2.0728E+02 -6.2575E+03  4.5087E+03  1.9561E+03  0.0000E+00  0.0000E+00  0.0000E+00
           3.0083E+04  0.0000E+00  0.0000E+00  0.0000E+00  9.0000E+01  9.0000E+01  9.0000E+01  0.0000E+00  6.1449E-01
 ------------------------------------------------------------------------------------------------------------------------
     6300 -4.7955E+03  3.0933E+02 -4.9071E+03  5.7556E+02 -4.5110E+03 -9.9881E+02  2.7167E+01  0.0000E+00  0.0000E+00
 630.000f -4.7560E+03  0.0000E+00  1.3900E+02 -6.2797E+03  4.5110E+03  1.9077E+03  0.0000E+00  0.0000E+00  0.0000E+00
   2.452m  3.0036E+04  0.0000E+00  0.0000E+00  0.0000E+00  9.0000E+01  9.0000E+01  9.0000E+01  0.0000E+00  1.7187E+00

  rolling -4.7955E+03  3.1049E+02 -4.9069E+03  5.7236E+02 -4.5081E+03 -9.9786E+02  2.6634E+01  0.0000E+00  0.0000E+00
 averages -4.7854E+03  0.0000E+00  2.2981E+02 -6.2512E+03  4.5081E+03  1.9730E+03  0.0000E+00  0.0000E+00  0.0000E+00
           3.0053E+04  0.0000E+00  0.0000E+00  0.0000E+00  9.0000E+01  9.0000E+01  9.0000E+01  0.0000E+00  1.4120E-01
 ------------------------------------------------------------------------------------------------------------------------
 ------------------------------------------------------------------------------------------------------------------------

     step     eng_tot    temp_tot     eng_cfg     eng_vdw     eng_cou     eng_bnd     eng_ang     eng_dih     eng_tet
 time          eng_pv    temp_rot     vir_cfg     vir_vdw     vir_cou     vir_bnd     vir_ang     vir_con     vir_tet
 cpu time      volume    temp_shl     eng_shl     vir_shl       alpha        beta       gamma     vir_pmf       press

 ------------------------------------------------------------------------------------------------------------------------
     6400 -4.7955E+03  3.0794E+02 -4.9078E+03  5.6782E+02 -4.5027E+03 -9.9762E+02  2.4686E+01  0.0000E+00  0.0000E+00
 640.000f -4.8161E+03  0.0000E+00  3.1453E+02 -6.2036E+03  4.5027E+03  2.0155E+03  0.0000E+00  0.0000E+00  0.0000E+00
   2.490m  3.0019E+04  0.0000E+00  0.0000E+00  0.0000E+00  9.0000E+01  9.0000E+01  9.0000E+01  0.0000E+00 -1.3809E+00

  rolling -4.7955E+03  3.0985E+02 -4.9079E+03  5.7154E+02 -4.5063E+03 -9.9792E+02  2.4752E+01  0.0000E+00  0.0000E+00
 averages -4.7908E+03  0.0000E+00  2.4215E+02 -6.2404E+03  4.5063E+03  1.9763E+03  0.0000E+00  0.0000E+00  0.0000E+00
           3.0028E+04  0.0000E+00  0.0000E+00  0.0000E+00  9.0000E+01  9.0000E+01  9.0000E+01  0.0000E+00 -8.4441E-02
 ------------------------------------------------------------------------------------------------------------------------
     6500 -4.7955E+03  3.0743E+02 -4.9087E+03  5.7252E+02 -4.5079E+03 -9.9950E+02  2.6247E+01  0.0000E+00  0.0000E+00
 650.000f -4.7657E+03  0.0000E+00  1.5968E+02 -6.2447E+03  4.5079E+03  1.8965E+03  0.0000E+00  0.0000E+00  0.0000E+00
   2.529m  2.9988E+04  0.0000E+00  0.0000E+00  0.0000E+00  9.0000E+01  9.0000E+01  9.0000E+01  0.0000E+00  1.3324E+00

  rolling -4.7955E+03  3.0823E+02 -4.9085E+03  5.7084E+02 -4.5070E+03 -9.9839E+02  2.6092E+01  0.0000E+00  0.0000E+00
 averages -4.7863E+03  0.0000E+00  2.2387E+02 -6.2300E+03  4.5070E+03  1.9469E+03  0.0000E+00  0.0000E+00  0.0000E+00
           3.0003E+04  0.0000E+00  0.0000E+00  0.0000E+00  9.0000E+01  9.0000E+01  9.0000E+01  0.0000E+00  2.1522E-01
 ------------------------------------------------------------------------------------------------------------------------
     6600 -4.7955E+03  3.0990E+02 -4.9104E+03  5.6626E+02 -4.5043E+03 -9.9734E+02  2.5044E+01  0.0000E+00  0.0000E+00
 660.000f -4.8324E+03  0.0000E+00  3.5952E+02 -6.1805E+03  4.5043E+03  2.0357E+03  0.0000E+00  0.0000E+00  0.0000E+00
   2.568m  2.9968E+04  0.0000E+00  0.0000E+00  0.0000E+00  9.0000E+01  9.0000E+01  9.0000E+01  0.0000E+00 -2.1483E+00

  rolling -4.7955E+03  3.0915E+02 -4.9097E+03  5.6821E+02 -4.5040E+03 -9.9871E+02  2.4737E+01  0.0000E+00  0.0000E+00
 averages -4.8052E+03  0.0000E+00  2.7861E+02 -6.2018E+03  4.5039E+03  1.9765E+03  0.0000E+00  0.0000E+00  0.0000E+00
           2.9979E+04  0.0000E+00  0.0000E+00  0.0000E+00  9.0000E+01  9.0000E+01  9.0000E+01  0.0000E+00 -7.3518E-01
 ------------------------------------------------------------------------------------------------------------------------
     6700 -4.7954E+03  3.0470E+02 -4.9089E+03  5.7206E+02 -4.5061E+03 -1.0004E+03  2.5525E+01  0.0000E+00  0.0000E+00
 670.000f -4.7674E+03  0.0000E+00  1.5889E+02 -6.2353E+03  4.5060E+03  1.8881E+03  0.0000E+00  0.0000E+00  0.0000E+00
   2.607m  2.9926E+04  0.0000E+00  0.0000E+00  0.0000E+00  9.0000E+01  9.0000E+01  9.0000E+01  0.0000E+00  1.3123E+00

  rolling -4.7954E+03  3.0776E+02 -4.9099E+03  5.7071E+02 -4.5070E+03 -9.9939E+02  2.5817E+01  0.0000E+00  0.0000E+00
 averages -4.7843E+03  0.0000E+00  2.1275E+02 -6.2215E+03  4.5069E+03  1.9273E+03  0.0000E+00  0.0000E+00  0.0000E+00
           2.9945E+04  0.0000E+00  0.0000E+00  0.0000E+00  9.0000E+01  9.0000E+01  9.0000E+01  0.0000E+00  4.0518E-01
 ------------------------------------------------------------------------------------------------------------------------
     6800 -4.7954E+03  3.0759E+02 -4.9099E+03  5.6857E+02 -4.5030E+03 -9.9973E+02  2.4296E+01  0.0000E+00  0.0000E+00
 680.000f -4.8084E+03  0.0000E+00  2.8464E+02 -6.2115E+03  4.5030E+03  1.9932E+03  0.0000E+00  0.0000E+00  0.0000E+00
   2.646m  2.9891E+04  0.0000E+00  0.0000E+00  0.0000E+00  9.0000E+01  9.0000E+01  9.0000E+01  0.0000E+00 -8.6456E-01

  rolling -4.7954E+03  3.0517E+02 -4.9091E+03  5.6834E+02 -4.5030E+03 -9.9869E+02  2.4292E+01  0.0000E+00  0.0000E+00
 averages -4.8112E+03  0.0000E+00  2.9085E+02 -6.2043E+03  4.5030E+03  1.9922E+03  0.0000E+00  0.0000E+00  0.0000E+00
           2.9911E+04  0.0000E+00  0.0000E+00  0.0000E+00  9.0000E+01  9.0000E+01  9.0000E+01  0.0000E+00 -1.0063E+00
 ------------------------------------------------------------------------------------------------------------------------
     6900 -4.7954E+03  3.0961E+02 -4.9098E+03  5.7325E+02 -4.5108E+03 -9.9799E+02  2.5737E+01  0.0000E+00  0.0000E+00
 690.000f -4.7786E+03  0.0000E+00  1.9914E+02 -6.2662E+03  4.5108E+03  1.9546E+03  0.0000E+00  0.0000E+00  0.0000E+00
   2.685m  2.9848E+04  0.0000E+00  0.0000E+00  0.0000E+00  9.0000E+01  9.0000E+01  9.0000E+01  0.0000E+00  6.7140E-01

  rolling -4.7954E+03  3.0846E+02 -4.9098E+03  5.7300E+02 -4.5089E+03 -9.9952E+02  2.5601E+01  0.0000E+00  0.0000E+00
 averages -4.7711E+03  0.0000E+00  1.7443E+02 -6.2581E+03  4.5089E+03  1.9237E+03  0.0000E+00  0.0000E+00  0.0000E+00
           2.9866E+04  0.0000E+00  0.0000E+00  0.0000E+00  9.0000E+01  9.0000E+01  9.0000E+01  0.0000E+00  1.0917E+00
 ------------------------------------------------------------------------------------------------------------------------
     7000 -4.7955E+03  3.0822E+02 -4.9084E+03  5.7386E+02 -4.5099E+03 -9.9774E+02  2.5418E+01  0.0000E+00  0.0000E+00
 700.000f -4.7830E+03  0.0000E+00  2.1427E+02 -6.2832E+03  4.5099E+03  1.9875E+03  0.0000E+00  0.0000E+00  0.0000E+00
   2.724m  2.9814E+04  0.0000E+00  0.0000E+00  0.0000E+00  9.0000E+01  9.0000E+01  9.0000E+01  0.0000E+00  3.8589E-01

  rolling -4.7954E+03  3.0927E+02 -4.9092E+03  5.7142E+02 -4.5074E+03 -9.9818E+02  2.4961E+01  0.0000E+00  0.0000E+00
 averages -4.8001E+03  0.0000E+00  2.6498E+02 -6.2549E+03  4.5074E+03  2.0124E+03  0.0000E+00  0.0000E+00  0.0000E+00
           2.9832E+04  0.0000E+00  0.0000E+00  0.0000E+00  9.0000E+01  9.0000E+01  9.0000E+01  0.0000E+00 -4.9616E-01
 ------------------------------------------------------------------------------------------------------------------------
     7100 -4.7954E+03  3.0875E+02 -4.9073E+03  5.7438E+02 -4.5090E+03 -9.9882E+02  2.6116E+01  0.0000E+00  0.0000E+00
 710.000f -4.7746E+03  0.0000E+00  1.9305E+02 -6.2945E+03  4.5090E+03  1.9785E+03  0.0000E+00  0.0000E+00  0.0000E+00
   2.764m  2.9791E+04  0.0000E+00  0.0000E+00  0.0000E+00  9.0000E+01  9.0000E+01  9.0000E+01  0.0000E+00  7.6885E-01

  rolling -4.7954E+03  3.0836E+02 -4.9078E+03  5.7633E+02 -4.5121E+03 -9.9839E+02  2.6385E+01  0.0000E+00  0.0000E+00
 averages -4.7580E+03  0.0000E+00  1.4108E+02 -6.3102E+03  4.5121E+03  1.9391E+03  0.0000E+00  0.0000E+00  0.0000E+00
           2.9799E+04  0.0000E+00  0.0000E+00  0.0000E+00  9.0000E+01  9.0000E+01  9.0000E+01  0.0000E+00  1.6826E+00
 ------------------------------------------------------------------------------------------------------------------------
 ------------------------------------------------------------------------------------------------------------------------

     step     eng_tot    temp_tot     eng_cfg     eng_vdw     eng_cou     eng_bnd     eng_ang     eng_dih     eng_tet
 time          eng_pv    temp_rot     vir_cfg     vir_vdw     vir_cou     vir_bnd     vir_ang     vir_con     vir_tet
 cpu time      volume    temp_shl     eng_shl     vir_shl       alpha        beta       gamma     vir_pmf       press

 ------------------------------------------------------------------------------------------------------------------------
     7200 -4.7955E+03  3.1341E+02 -4.9077E+03  5.7442E+02 -4.5091E+03 -9.9828E+02  2.5251E+01  0.0000E+00  0.0000E+00
 720.000f -4.7654E+03  0.0000E+00  1.7331E+02 -6.2941E+03  4.5091E+03  1.9583E+03  0.0000E+00  0.0000E+00  0.0000E+00
   2.803m  2.9784E+04  0.0000E+00  0.0000E+00  0.0000E+00  9.0000E+01  9.0000E+01  9.0000E+01  0.0000E+00  1.1814E+00

  rolling -4.7954E+03  3.1051E+02 -4.9073E+03  5.7248E+02 -4.5075E+03 -9.9706E+02  2.4817E+01  0.0000E+00  0.0000E+00
 averages -4.7919E+03  0.0000E+00  2.4847E+02 -6.2768E+03  4.5075E+03  2.0177E+03  0.0000E+00  0.0000E+00  0.0000E+00
           2.9789E+04  0.0000E+00  0.0000E+00  0.0000E+00  9.0000E+01  9.0000E+01  9.0000E+01  0.0000E+00 -1.8776E-01
 ------------------------------------------------------------------------------------------------------------------------
     7300 -4.7955E+03  3.1124E+02 -4.9062E+03  5.7061E+02 -4.5077E+03 -9.9629E+02  2.7161E+01  0.0000E+00  0.0000E+00
 730.000f -4.7941E+03  0.0000E+00  2.5983E+02 -6.2560E+03  4.5077E+03  2.0082E+03  0.0000E+00  0.0000E+00  0.0000E+00
   2.842m  2.9796E+04  0.0000E+00  0.0000E+00  0.0000E+00  9.0000E+01  9.0000E+01  9.0000E+01  0.0000E+00 -3.7901E-01

  rolling -4.7955E+03  3.1539E+02 -4.9080E+03  5.7416E+02 -4.5114E+03 -9.9783E+02  2.6994E+01  0.0000E+00  0.0000E+00
 averages -4.7620E+03  0.0000E+00  1.6598E+02 -6.2908E+03  4.5114E+03  1.9454E+03  0.0000E+00  0.0000E+00  0.0000E+00
           2.9787E+04  0.0000E+00  0.0000E+00  0.0000E+00  9.0000E+01  9.0000E+01  9.0000E+01  0.0000E+00  1.3379E+00
 ------------------------------------------------------------------------------------------------------------------------
     7400 -4.7954E+03  3.0900E+02 -4.9050E+03  5.7083E+02 -4.5027E+03 -9.9836E+02  2.5270E+01  0.0000E+00  0.0000E+00
 740.000f -4.7636E+03  0.0000E+00  1.6765E+02 -6.2525E+03  4.5027E+03  1.9174E+03  0.0000E+00  0.0000E+00  0.0000E+00
   2.882m  2.9812E+04  0.0000E+00  0.0000E+00  0.0000E+00  9.0000E+01  9.0000E+01  9.0000E+01  0.0000E+00  1.2207E+00

  rolling -4.7954E+03  3.0882E+02 -4.9051E+03  5.6950E+02 -4.5017E+03 -9.9818E+02  2.5256E+01  0.0000E+00  0.0000E+00
 averages -4.7891E+03  0.0000E+00  2.4323E+02 -6.2433E+03  4.5017E+03  1.9849E+03  0.0000E+00  0.0000E+00  0.0000E+00
           2.9804E+04  0.0000E+00  0.0000E+00  0.0000E+00  9.0000E+01  9.0000E+01  9.0000E+01  0.0000E+00 -1.1801E-01
 ------------------------------------------------------------------------------------------------------------------------
     7500 -4.7954E+03  3.1555E+02 -4.9072E+03  5.6208E+02 -4.4982E+03 -9.9785E+02  2.6741E+01  0.0000E+00  0.0000E+00
 750.000f -4.8188E+03  0.0000E+00  3.3887E+02 -6.1636E+03  4.4982E+03  2.0043E+03  0.0000E+00  0.0000E+00  0.0000E+00
   2.920m  2.9839E+04  0.0000E+00  0.0000E+00  0.0000E+00  9.0000E+01  9.0000E+01  9.0000E+01  0.0000E+00 -1.7163E+00

  rolling -4.7954E+03  3.1372E+02 -4.9066E+03  5.6738E+02 -4.5020E+03 -9.9843E+02  2.6491E+01  0.0000E+00  0.0000E+00
 averages -4.7812E+03  0.0000E+00  2.2469E+02 -6.2170E+03  4.5020E+03  1.9397E+03  0.0000E+00  0.0000E+00  0.0000E+00
           2.9825E+04  0.0000E+00  0.0000E+00  0.0000E+00  9.0000E+01  9.0000E+01  9.0000E+01  0.0000E+00  2.7629E-01
 ------------------------------------------------------------------------------------------------------------------------
     7600 -4.7954E+03  3.1179E+02 -4.9066E+03  5.6550E+02 -4.4979E+03 -9.9977E+02  2.5633E+01  0.0000E+00  0.0000E+00
 760.000f -4.7747E+03  0.0000E+00  2.0138E+02 -6.1886E+03  4.4979E+03  1.8921E+03  0.0000E+00  0.0000E+00  0.0000E+00
   2.959m  2.9839E+04  0.0000E+00  0.0000E+00  0.0000E+00  9.0000E+01  9.0000E+01  9.0000E+01  0.0000E+00  6.6153E-01

  rolling -4.7954E+03  3.1493E+02 -4.9073E+03  5.6232E+02 -4.4975E+03 -9.9764E+02  2.5581E+01  0.0000E+00  0.0000E+00
 averages -4.8134E+03  0.0000E+00  3.2126E+02 -6.1622E+03  4.4975E+03  1.9859E+03  0.0000E+00  0.0000E+00  0.0000E+00
           2.9843E+04  0.0000E+00  0.0000E+00  0.0000E+00  9.0000E+01  9.0000E+01  9.0000E+01  0.0000E+00 -1.4133E+00
 ------------------------------------------------------------------------------------------------------------------------
     7700 -4.7953E+03  3.0305E+02 -4.9043E+03  5.6337E+02 -4.4953E+03 -9.9760E+02  2.5248E+01  0.0000E+00  0.0000E+00
[...]
 ------------------------------------------------------------------------------------------------------------------------
    98500 -4.7785E+03  3.1298E+02 -4.8987E+03  5.6187E+02 -4.4885E+03 -9.9632E+02  2.4249E+01  0.0000E+00  0.0000E+00
   9.850p -4.8193E+03  0.0000E+00  3.6130E+02 -6.1308E+03  4.4885E+03  2.0037E+03  0.0000E+00  0.0000E+00  0.0000E+00
  38.538m  3.0100E+04  0.0000E+00  0.0000E+00  0.0000E+00  9.0000E+01  9.0000E+01  9.0000E+01  0.0000E+00 -2.1287E+00

  rolling -4.7786E+03  3.1335E+02 -4.8991E+03  5.6152E+02 -4.4870E+03 -9.9851E+02  2.4833E+01  0.0000E+00  0.0000E+00
 averages -4.8109E+03  0.0000E+00  3.3542E+02 -6.1235E+03  4.4870E+03  1.9720E+03  0.0000E+00  0.0000E+00  0.0000E+00
           3.0098E+04  0.0000E+00  0.0000E+00  0.0000E+00  9.0000E+01  9.0000E+01  9.0000E+01  0.0000E+00 -1.6704E+00
 ------------------------------------------------------------------------------------------------------------------------
    98600 -4.7785E+03  3.1437E+02 -4.8991E+03  5.6546E+02 -4.4893E+03 -1.0003E+03  2.5051E+01  0.0000E+00  0.0000E+00
   9.860p -4.7774E+03  0.0000E+00  2.3691E+02 -6.1709E+03  4.4893E+03  1.9186E+03  0.0000E+00  0.0000E+00  0.0000E+00
  38.577m  3.0089E+04  0.0000E+00  0.0000E+00  0.0000E+00  9.0000E+01  9.0000E+01  9.0000E+01  0.0000E+00  6.8294E-02

  rolling -4.7785E+03  3.1221E+02 -4.8983E+03  5.6584E+02 -4.4902E+03 -9.9927E+02  2.5307E+01  0.0000E+00  0.0000E+00
 averages -4.7709E+03  0.0000E+00  2.1563E+02 -6.1710E+03  4.4902E+03  1.8965E+03  0.0000E+00  0.0000E+00  0.0000E+00
           3.0093E+04  0.0000E+00  0.0000E+00  0.0000E+00  9.0000E+01  9.0000E+01  9.0000E+01  0.0000E+00  4.1204E-01
 ------------------------------------------------------------------------------------------------------------------------
    98700 -4.7784E+03  3.1377E+02 -4.8991E+03  5.6452E+02 -4.4896E+03 -9.9935E+02  2.5392E+01  0.0000E+00  0.0000E+00
   9.870p -4.7807E+03  0.0000E+00  2.4576E+02 -6.1660E+03  4.4896E+03  1.9222E+03  0.0000E+00  0.0000E+00  0.0000E+00
  38.616m  3.0072E+04  0.0000E+00  0.0000E+00  0.0000E+00  9.0000E+01  9.0000E+01  9.0000E+01  0.0000E+00 -9.4923E-02

  rolling -4.7784E+03  3.1162E+02 -4.8981E+03  5.6270E+02 -4.4882E+03 -9.9786E+02  2.5242E+01  0.0000E+00  0.0000E+00
 averages -4.8096E+03  0.0000E+00  3.3110E+02 -6.1482E+03  4.4882E+03  1.9912E+03  0.0000E+00  0.0000E+00  0.0000E+00
           3.0084E+04  0.0000E+00  0.0000E+00  0.0000E+00  9.0000E+01  9.0000E+01  9.0000E+01  0.0000E+00 -1.6189E+00
 ------------------------------------------------------------------------------------------------------------------------
    98800 -4.7784E+03  3.1643E+02 -4.9008E+03  5.6507E+02 -4.4921E+03 -9.9913E+02  2.5320E+01  0.0000E+00  0.0000E+00
   9.880p -4.7914E+03  0.0000E+00  2.7790E+02 -6.1673E+03  4.4920E+03  1.9532E+03  0.0000E+00  0.0000E+00  0.0000E+00
  38.655m  3.0046E+04  0.0000E+00  0.0000E+00  0.0000E+00  9.0000E+01  9.0000E+01  9.0000E+01  0.0000E+00 -6.2303E-01

  rolling -4.7784E+03  3.1430E+02 -4.8996E+03  5.6735E+02 -4.4936E+03 -9.9891E+02  2.5622E+01  0.0000E+00  0.0000E+00
 averages -4.7700E+03  0.0000E+00  2.1320E+02 -6.1897E+03  4.4936E+03  1.9093E+03  0.0000E+00  0.0000E+00  0.0000E+00
           3.0057E+04  0.0000E+00  0.0000E+00  0.0000E+00  9.0000E+01  9.0000E+01  9.0000E+01  0.0000E+00  4.8307E-01
 ------------------------------------------------------------------------------------------------------------------------
    98900 -4.7783E+03  3.0674E+02 -4.8985E+03  5.6777E+02 -4.4930E+03 -9.9808E+02  2.4791E+01  0.0000E+00  0.0000E+00
   9.890p -4.7828E+03  0.0000E+00  2.4031E+02 -6.1916E+03  4.4929E+03  1.9390E+03  0.0000E+00  0.0000E+00  0.0000E+00
  38.694m  3.0010E+04  0.0000E+00  0.0000E+00  0.0000E+00  9.0000E+01  9.0000E+01  9.0000E+01  0.0000E+00 -9.3837E-02

  rolling -4.7783E+03  3.1079E+02 -4.8993E+03  5.6423E+02 -4.4906E+03 -9.9831E+02  2.5306E+01  0.0000E+00  0.0000E+00
 averages -4.8055E+03  0.0000E+00  3.1376E+02 -6.1596E+03  4.4905E+03  1.9828E+03  0.0000E+00  0.0000E+00  0.0000E+00
           3.0031E+04  0.0000E+00  0.0000E+00  0.0000E+00  9.0000E+01  9.0000E+01  9.0000E+01  0.0000E+00 -1.3283E+00
 ------------------------------------------------------------------------------------------------------------------------
    99000 -4.7783E+03  3.1209E+02 -4.9017E+03  5.6655E+02 -4.4953E+03 -9.9737E+02  2.4471E+01  0.0000E+00  0.0000E+00
   9.900p -4.8059E+03  0.0000E+00  3.1023E+02 -6.1828E+03  4.4953E+03  1.9977E+03  0.0000E+00  0.0000E+00  0.0000E+00
  38.733m  2.9976E+04  0.0000E+00  0.0000E+00  0.0000E+00  9.0000E+01  9.0000E+01  9.0000E+01  0.0000E+00 -1.2513E+00

  rolling -4.7783E+03  3.0938E+02 -4.9001E+03  5.6958E+02 -4.4941E+03 -9.9969E+02  2.4145E+01  0.0000E+00  0.0000E+00
 averages -4.7639E+03  0.0000E+00  1.8396E+02 -6.2088E+03  4.4941E+03  1.8987E+03  0.0000E+00  0.0000E+00  0.0000E+00
           2.9990E+04  0.0000E+00  0.0000E+00  0.0000E+00  9.0000E+01  9.0000E+01  9.0000E+01  0.0000E+00  9.3176E-01
 ------------------------------------------------------------------------------------------------------------------------
    99100 -4.7783E+03  3.0887E+02 -4.9020E+03  5.7163E+02 -4.4995E+03 -9.9996E+02  2.5888E+01  0.0000E+00  0.0000E+00
   9.910p -4.7636E+03  0.0000E+00  1.7645E+02 -6.2344E+03  4.4995E+03  1.9114E+03  0.0000E+00  0.0000E+00  0.0000E+00
  38.773m  2.9931E+04  0.0000E+00  0.0000E+00  0.0000E+00  9.0000E+01  9.0000E+01  9.0000E+01  0.0000E+00  1.0590E+00

  rolling -4.7783E+03  3.1164E+02 -4.9022E+03  5.6667E+02 -4.4965E+03 -9.9756E+02  2.5112E+01  0.0000E+00  0.0000E+00
 averages -4.8069E+03  0.0000E+00  3.1089E+02 -6.1859E+03  4.4964E+03  2.0003E+03  0.0000E+00  0.0000E+00  0.0000E+00
           2.9956E+04  0.0000E+00  0.0000E+00  0.0000E+00  9.0000E+01  9.0000E+01  9.0000E+01  0.0000E+00 -1.2696E+00
 ------------------------------------------------------------------------------------------------------------------------
 ------------------------------------------------------------------------------------------------------------------------

     step     eng_tot    temp_tot     eng_cfg     eng_vdw     eng_cou     eng_bnd     eng_ang     eng_dih     eng_tet
 time          eng_pv    temp_rot     vir_cfg     vir_vdw     vir_cou     vir_bnd     vir_ang     vir_con     vir_tet
 cpu time      volume    temp_shl     eng_shl     vir_shl       alpha        beta       gamma     vir_pmf       press

 ------------------------------------------------------------------------------------------------------------------------
    99200 -4.7783E+03  3.0709E+02 -4.9027E+03  5.6926E+02 -4.4982E+03 -9.9846E+02  2.4744E+01  0.0000E+00  0.0000E+00
   9.920p -4.8011E+03  0.0000E+00  2.8335E+02 -6.2174E+03  4.4982E+03  2.0026E+03  0.0000E+00  0.0000E+00  0.0000E+00
  38.811m  2.9896E+04  0.0000E+00  0.0000E+00  0.0000E+00  9.0000E+01  9.0000E+01  9.0000E+01  0.0000E+00 -8.4831E-01

  rolling -4.7783E+03  3.0886E+02 -4.9027E+03  5.7252E+02 -4.5014E+03 -9.9887E+02  2.5040E+01  0.0000E+00  0.0000E+00
 averages -4.7673E+03  0.0000E+00  1.8523E+02 -6.2454E+03  4.5013E+03  1.9292E+03  0.0000E+00  0.0000E+00  0.0000E+00
           2.9911E+04  0.0000E+00  0.0000E+00  0.0000E+00  9.0000E+01  9.0000E+01  9.0000E+01  0.0000E+00  9.0464E-01
 ------------------------------------------------------------------------------------------------------------------------
    99300 -4.7783E+03  3.0619E+02 -4.9035E+03  5.7665E+02 -4.5074E+03 -9.9854E+02  2.5798E+01  0.0000E+00  0.0000E+00
   9.930p -4.7512E+03  0.0000E+00  1.2952E+02 -6.2898E+03  4.5074E+03  1.9120E+03  0.0000E+00  0.0000E+00  0.0000E+00
  38.850m  2.9859E+04  0.0000E+00  0.0000E+00  0.0000E+00  9.0000E+01  9.0000E+01  9.0000E+01  0.0000E+00  1.8539E+00

  rolling -4.7783E+03  3.0743E+02 -4.9034E+03  5.7130E+02 -4.5014E+03 -9.9796E+02  2.4638E+01  0.0000E+00  0.0000E+00
 averages -4.7922E+03  0.0000E+00  2.5496E+02 -6.2385E+03  4.5014E+03  1.9921E+03  0.0000E+00  0.0000E+00  0.0000E+00
           2.9878E+04  0.0000E+00  0.0000E+00  0.0000E+00  9.0000E+01  9.0000E+01  9.0000E+01  0.0000E+00 -3.4320E-01
 ------------------------------------------------------------------------------------------------------------------------
    99400 -4.7783E+03  3.0703E+02 -4.9045E+03  5.7159E+02 -4.5049E+03 -9.9629E+02  2.5128E+01  0.0000E+00  0.0000E+00
   9.940p -4.8128E+03  0.0000E+00  3.1297E+02 -6.2469E+03  4.5049E+03  2.0549E+03  0.0000E+00  0.0000E+00  0.0000E+00
  38.889m  2.9846E+04  0.0000E+00  0.0000E+00  0.0000E+00  9.0000E+01  9.0000E+01  9.0000E+01  0.0000E+00 -1.3737E+00

  rolling -4.7783E+03  3.0877E+02 -4.9048E+03  5.7533E+02 -4.5067E+03 -9.9900E+02  2.5551E+01  0.0000E+00  0.0000E+00
 averages -4.7660E+03  0.0000E+00  1.7483E+02 -6.2794E+03  4.5067E+03  1.9476E+03  0.0000E+00  0.0000E+00  0.0000E+00
           2.9850E+04  0.0000E+00  0.0000E+00  0.0000E+00  9.0000E+01  9.0000E+01  9.0000E+01  0.0000E+00  1.0892E+00
 ------------------------------------------------------------------------------------------------------------------------
    99500 -4.7783E+03  3.0634E+02 -4.9048E+03  5.7720E+02 -4.5091E+03 -9.9933E+02  2.6442E+01  0.0000E+00  0.0000E+00
   9.950p -4.7423E+03  0.0000E+00  9.9177E+01 -6.3036E+03  4.5091E+03  1.8936E+03  0.0000E+00  0.0000E+00  0.0000E+00
  38.928m  2.9834E+04  0.0000E+00  0.0000E+00  0.0000E+00  9.0000E+01  9.0000E+01  9.0000E+01  0.0000E+00  2.3935E+00

  rolling -4.7783E+03  3.0919E+02 -4.9056E+03  5.7397E+02 -4.5058E+03 -9.9844E+02  2.4666E+01  0.0000E+00  0.0000E+00
 averages -4.7802E+03  0.0000E+00  2.1572E+02 -6.2713E+03  4.5058E+03  1.9812E+03  0.0000E+00  0.0000E+00  0.0000E+00
           2.9839E+04  0.0000E+00  0.0000E+00  0.0000E+00  9.0000E+01  9.0000E+01  9.0000E+01  0.0000E+00  3.7318E-01
 ------------------------------------------------------------------------------------------------------------------------
    99600 -4.7782E+03  3.0553E+02 -4.9046E+03  5.6856E+02 -4.4983E+03 -9.9877E+02  2.3930E+01  0.0000E+00  0.0000E+00
   9.960p -4.8069E+03  0.0000E+00  2.9192E+02 -6.2246E+03  4.4983E+03  2.0182E+03  0.0000E+00  0.0000E+00  0.0000E+00
  38.967m  2.9850E+04  0.0000E+00  0.0000E+00  0.0000E+00  9.0000E+01  9.0000E+01  9.0000E+01  0.0000E+00 -1.0220E+00

  rolling -4.7783E+03  3.0676E+02 -4.9051E+03  5.7275E+02 -4.5049E+03 -9.9790E+02  2.4978E+01  0.0000E+00  0.0000E+00
 averages -4.7801E+03  0.0000E+00  2.1264E+02 -6.2633E+03  4.5049E+03  1.9711E+03  0.0000E+00  0.0000E+00  0.0000E+00
           2.9842E+04  0.0000E+00  0.0000E+00  0.0000E+00  9.0000E+01  9.0000E+01  9.0000E+01  0.0000E+00  3.9479E-01
 ------------------------------------------------------------------------------------------------------------------------
    99700 -4.7782E+03  3.1151E+02 -4.9069E+03  5.7376E+02 -4.5091E+03 -9.9796E+02  2.6437E+01  0.0000E+00  0.0000E+00
   9.970p -4.7627E+03  0.0000E+00  1.6395E+02 -6.2684E+03  4.5091E+03  1.9233E+03  0.0000E+00  0.0000E+00  0.0000E+00
  39.006m  2.9862E+04  0.0000E+00  0.0000E+00  0.0000E+00  9.0000E+01  9.0000E+01  9.0000E+01  0.0000E+00  1.3178E+00

  rolling -4.7782E+03  3.1236E+02 -4.9072E+03  5.7135E+02 -4.5049E+03 -9.9817E+02  2.4531E+01  0.0000E+00  0.0000E+00
 averages -4.7832E+03  0.0000E+00  2.2634E+02 -6.2488E+03  4.5049E+03  1.9703E+03  0.0000E+00  0.0000E+00  0.0000E+00
           2.9856E+04  0.0000E+00  0.0000E+00  0.0000E+00  9.0000E+01  9.0000E+01  9.0000E+01  0.0000E+00  2.2816E-01
 ------------------------------------------------------------------------------------------------------------------------
    99800 -4.7781E+03  3.0647E+02 -4.9051E+03  5.6790E+02 -4.5012E+03 -9.9710E+02  2.5224E+01  0.0000E+00  0.0000E+00
   9.980p -4.8203E+03  0.0000E+00  3.3243E+02 -6.2111E+03  4.5012E+03  2.0424E+03  0.0000E+00  0.0000E+00  0.0000E+00
  39.045m  2.9888E+04  0.0000E+00  0.0000E+00  0.0000E+00  9.0000E+01  9.0000E+01  9.0000E+01  0.0000E+00 -1.7224E+00

  rolling -4.7782E+03  3.0898E+02 -4.9060E+03  5.7002E+02 -4.5028E+03 -9.9896E+02  2.5670E+01  0.0000E+00  0.0000E+00
 averages -4.7901E+03  0.0000E+00  2.4405E+02 -6.2323E+03  4.5028E+03  1.9736E+03  0.0000E+00  0.0000E+00  0.0000E+00
           2.9875E+04  0.0000E+00  0.0000E+00  0.0000E+00  9.0000E+01  9.0000E+01  9.0000E+01  0.0000E+00 -1.2982E-01
 ------------------------------------------------------------------------------------------------------------------------
    99900 -4.7780E+03  3.0447E+02 -4.9042E+03  5.7226E+02 -4.5017E+03 -1.0005E+03  2.5709E+01  0.0000E+00  0.0000E+00
   9.990p -4.7602E+03  0.0000E+00  1.5093E+02 -6.2495E+03  4.5017E+03  1.8988E+03  0.0000E+00  0.0000E+00  0.0000E+00
  39.084m  2.9906E+04  0.0000E+00  0.0000E+00  0.0000E+00  9.0000E+01  9.0000E+01  9.0000E+01  0.0000E+00  1.4503E+00

  rolling -4.7781E+03  3.0745E+02 -4.9055E+03  5.7147E+02 -4.5028E+03 -9.9892E+02  2.4783E+01  0.0000E+00  0.0000E+00
 averages -4.7745E+03  0.0000E+00  1.9577E+02 -6.2433E+03  4.5028E+03  1.9363E+03  0.0000E+00  0.0000E+00  0.0000E+00
           2.9895E+04  0.0000E+00  0.0000E+00  0.0000E+00  9.0000E+01  9.0000E+01  9.0000E+01  0.0000E+00  7.0037E-01
 ------------------------------------------------------------------------------------------------------------------------
 ------------------------------------------------------------------------------------------------------------------------

     step     eng_tot    temp_tot     eng_cfg     eng_vdw     eng_cou     eng_bnd     eng_ang     eng_dih     eng_tet
 time          eng_pv    temp_rot     vir_cfg     vir_vdw     vir_cou     vir_bnd     vir_ang     vir_con     vir_tet
 cpu time      volume    temp_shl     eng_shl     vir_shl       alpha        beta       gamma     vir_pmf       press

 ------------------------------------------------------------------------------------------------------------------------
   100000 -4.7780E+03  3.0817E+02 -4.9048E+03  5.6650E+02 -4.4965E+03 -9.9947E+02  2.4702E+01  0.0000E+00  0.0000E+00
  10.000p -4.8046E+03  0.0000E+00  2.8968E+02 -6.1981E+03  4.4965E+03  1.9912E+03  0.0000E+00  0.0000E+00  0.0000E+00
  39.122m  2.9936E+04  0.0000E+00  0.0000E+00  0.0000E+00  9.0000E+01  9.0000E+01  9.0000E+01  0.0000E+00 -9.4407E-01

  rolling -4.7780E+03  3.0623E+02 -4.9045E+03  5.6753E+02 -4.4991E+03 -9.9818E+02  2.5243E+01  0.0000E+00  0.0000E+00
 averages -4.8055E+03  0.0000E+00  2.8944E+02 -6.2055E+03  4.4991E+03  1.9959E+03  0.0000E+00  0.0000E+00  0.0000E+00
           2.9924E+04  0.0000E+00  0.0000E+00  0.0000E+00  9.0000E+01  9.0000E+01  9.0000E+01  0.0000E+00 -9.6618E-01
 ------------------------------------------------------------------------------------------------------------------------


 run terminating. elapsed cpu time =   2.34734E+03, job time =  50.000d, close time =  120.00s



 run terminated after  100000 steps. final averages calculated over   95000 steps.


 ------------------------------------------------------------------------------------------------------------------------

     step     eng_tot    temp_tot     eng_cfg     eng_vdw     eng_cou     eng_bnd     eng_ang     eng_dih     eng_tet
 time          eng_pv    temp_rot     vir_cfg     vir_vdw     vir_cou     vir_bnd     vir_ang     vir_con     vir_tet
 cpu time      volume    temp_shl     eng_shl     vir_shl       alpha        beta       gamma     vir_pmf       press

 ------------------------------------------------------------------------------------------------------------------------
   100000 -4.7866E+03  3.1001E+02 -4.9038E+03  5.6835E+02 -4.4985E+03 -9.9848E+02  2.4790E+01  0.0000E+00  0.0000E+00
  10.000p -4.7854E+03  0.0000E+00  2.3828E+02 -6.2076E+03  4.4985E+03  1.9474E+03  0.0000E+00  0.0000E+00  0.0000E+00
  39.123m  2.9751E+04  0.0000E+00  0.0000E+00  0.0000E+00  9.0000E+01  9.0000E+01  9.0000E+01  0.0000E+00 -1.3228E-02

  r.m.s.   4.9419E+00  4.4674E+00  2.1980E+00  4.2502E+00  5.4693E+00  1.5519E+00  1.0850E+00  0.0000E+00  0.0000E+00
 fluctn.   2.1085E+01  0.0000E+00  6.2738E+01  4.3400E+01  5.4698E+00  4.6414E+01  0.0000E+00  0.0000E+00  0.0000E+00
           2.2638E+02  0.0000E+00  0.0000E+00  0.0000E+00  2.4450E-13  2.4450E-13  2.4450E-13  0.0000E+00  1.1121E+00
 ------------------------------------------------------------------------------------------------------------------------


            Approximate 3D Diffusion  coefficients (10^-9 m^2 / s)

            atom        D 
            Ca         9.3479E-02
            C_CaCO3    8.4829E-02
            O_CaCO3    1.1004E-01
            O_tip3p    2.6984E+00
            H_tip3p    2.7248E+00


                Average pressure tensor                                       r.m.s. fluctuations 

          -1.2609E-02  6.6062E-02  7.9361E-03                          1.5058E+00  8.4057E-01  9.2004E-01
           6.6062E-02  4.9119E-02  6.6636E-02                          8.4057E-01  1.3977E+00  9.2227E-01
           7.9361E-03  6.6636E-02 -2.8793E-02                          9.2004E-01  9.2227E-01  1.6104E+00

            trace/3.   2.5726E-03


                 Average cell vectors                                         r.m.s. fluctuations 

       30.9860562392        0.0000000000        0.0000000000           7.8536E-02  0.0000E+00  0.0000E+00
        0.0000000000       30.9860562392        0.0000000000           0.0000E+00  7.8536E-02  0.0000E+00
        0.0000000000        0.0000000000       30.9860562392           0.0000E+00  0.0000E+00  7.8536E-02


 sample of final configuration

      i       x(i)        y(i)        z(i)       vx(i)       vy(i)       vz(i)       fx(i)       fy(i)       fz(i)


      1  6.2735E+00 -2.2120E-01  5.3210E-01 -2.4034E+00 -4.8427E-01  2.5053E+00  3.2882E+03 -9.6430E+03  5.5129E+03
    150 -1.7475E+00  6.5725E+00  2.5226E+00  7.2231E+00 -3.3609E+00  1.5589E+00  9.3351E+03 -1.5148E+04 -1.5125E+03
    299 -4.2782E+00 -3.1636E-01 -8.5530E+00 -1.7447E+00  4.5175E+00 -7.9975E-01  9.0423E+03 -9.3210E+03 -1.4966E+04
    448 -4.3273E+00 -7.0936E+00 -7.7291E+00 -4.2864E+00 -2.1112E+00  3.4993E+00 -8.3571E+01 -1.6074E+03  2.3410E+03
    597 -8.9535E+00 -2.6368E+00 -9.9254E+00 -1.2815E+01  2.6629E+01  1.4518E+01 -4.2189E+03  3.8214E+03 -8.3359E+03
    746  9.6421E+00  1.3586E+01 -6.0668E+00 -6.6524E-01 -2.1164E+01  1.7422E-01 -7.8747E+02 -2.3506E+03  1.1600E+03
    895 -1.1438E+01 -3.3495E+00  6.2807E+00  2.4877E+00  1.3785E+00 -6.6373E+00  7.8083E+03 -1.9810E+03  2.2877E+03
   1044  6.7570E+00 -1.0459E+01 -6.6505E+00  3.2995E+01  3.9984E+00  1.3528E+01 -5.4265E+03  8.0147E+03  1.8437E+04
   1193  1.7537E+00  1.1533E+01 -1.4250E+01 -7.5594E+00 -9.9536E-02 -1.8442E+01 -4.7365E+03  1.6276E+03 -1.9258E+03
   1342 -1.0465E+01  9.4594E-01 -1.3285E+01 -8.3058E-01 -9.7880E-01 -3.3418E+00 -2.0155E+04  8.8739E+02 -5.3316E+03
   1491 -4.4534E+00 -8.1229E+00 -1.3424E+01 -6.6894E+00 -1.9191E+00  6.0766E+00  3.5602E+03 -1.1784E+02  2.1365E+03
   1640 -9.9086E-01  1.2610E+01 -7.1579E+00 -2.5057E+00  5.1611E+00  1.1936E+01 -1.9445E+03  9.4254E+02  2.1013E+03
   1789 -1.3119E+01  1.3844E+01 -2.6959E+00  7.6488E-01 -2.0351E+00  1.3604E+00  3.3423E+03 -7.1353E+03  7.3405E+02
   1938 -9.7170E+00  4.8586E+00  1.1525E+00  3.0438E+00  8.8379E+00 -2.0559E+01  5.0448E+03  1.2736E+03 -1.2467E+03
   2087 -1.3091E+01 -2.6535E+00  6.8827E+00  6.4092E+00  1.3479E+01  1.4031E+01 -2.2089E+03  4.8429E+03  4.1124E+03
   2236 -8.3139E+00 -6.9963E+00  9.8573E+00 -9.4339E+00 -3.4664E+00 -5.2111E+00  9.7255E+03 -1.2304E+02  8.7456E+03
   2385 -1.1619E+01 -1.5367E+01  7.0930E+00  9.8385E+00  1.5156E+01 -2.3365E+01 -4.9824E+03 -2.0909E+03  5.9874E+03
   2534  1.5154E+01 -4.9388E+00 -4.9978E+00 -2.0372E+01 -1.2765E+00 -2.6005E+01  4.1783E+03 -6.6167E+03  4.1068E+03
   2683  1.4564E+01 -8.0762E+00  1.4313E+00 -3.5071E+00 -1.1594E+00  1.1050E+00 -4.5998E+03 -8.7842E+03 -7.0372E+02
   2832 -1.0407E+01  8.6472E+00 -6.3057E+00  2.9722E+00  1.7934E+01  3.2574E+01  1.3369E+03  5.3420E+01  2.1346E+03

 time elapsed since job start =        2347.383 seconds

