
                    DL_POLY Classic 1.2

                              Running on    8 nodes


 ************************************************************************************************************************
 ************************************************************************************************************************
 ************************************************************************************************************************
 ***************     DL_POLY TEST 16: RELAXED SHELL MODEL MgO                                             ***************
 ************************************************************************************************************************
 ************************************************************************************************************************
 ************************************************************************************************************************


 SIMULATION CONTROL PARAMETERS


 velocity verlet integration selected

 simulation temperature           3.0000E+03

 simulation pressure (katm)       0.0000E+00

 Berendsen anisotropic N-P-T
 thermostat relaxation time       1.0000E-01
 barostat relaxation time         3.0000E-01

 NST mode 0 X<>Y<>Z

 selected number of timesteps         1000

 equilibration period                  200

 temperature scaling on
 temperature scaling interval           10

 data printing interval                 10

 data stacking interval                100

 statistics file interval               10


 radial distribution functions on 
 g(r) collection interval               10
 g(r) bin width                   5.0000E-02

 simulation timestep              2.0000E-03

 real space cut off               6.0000E+00

 border width of Verlet shell     1.5000E-01

 Ewald sum  precision             1.0000E-05

 Electrostatics : Ewald sum  

 Ewald convergence parameter      4.8831E-01
 Ewald kmax1 kmax2 kmax3         5    5    5

 g(r) printing option on      

 user allocated job time (h)      1.0000

 job closure time        (s)     200.000


SYSTEM SPECIFICATION

 energy units=electron volts 


 number of molecular types               1

 molecular species type                  1


 name of species:             MgO                                     

 number of molecules                    27

 number of atoms/sites                  12


 atomic characteristics:

                      site     name          mass        charge    repeat    freeze

                         1     Mg          24.30500     2.00000         4         0
                         5     O_          15.99940     0.15000         4         0
                         9     O_S          0.00000    -2.15000         4         0

 number of core-shell units              4


 core-shell details:

                           core     shell      parameter
                              5         9        15.7400         0.0000
                              6        10        15.7400         0.0000
                              7        11        15.7400         0.0000
                              8        12        15.7400         0.0000


 number of specified pair potentials         2


                atom 1  atom 2      key                              parameters


                Mg      O_S       buck     8.21600E+02  3.24200E-01  0.00000E+00
                O_S     O_S       buck     2.27644E+04  1.49000E-01  2.03700E+01

  *** warning - undefined atom-atom interactions set to zero ***


relaxed shell model in operation

 configuration file name: 

          DL_POLY TEST CASE 16: RELAXED SHELL MODEL MgO                                   


 selected image convention               3


 simulation cell vectors


                        12.300000    0.000000    0.000000
                         0.000000   12.300000    0.000000
                         0.000000    0.000000   12.300000


 system volume            1860.86700000    


 total degrees of freedom                       645.
 rotational degrees of freedom                    0.
 shell pseudo degrees of freedom                324.


 sample of starting configuration

      i       x(i)        y(i)        z(i)       vx(i)       vy(i)       vz(i)


      1  5.2222E+00  5.1250E+00 -5.0355E+00  2.0279E+01 -5.1444E+00 -9.6466E+00
     18  5.2222E+00 -1.0250E+00 -5.0355E+00 -4.8042E+00  1.3586E+00 -1.1240E+01
     35  5.2222E+00  1.0250E+00 -2.9855E+00  0.0000E+00  0.0000E+00  0.0000E+00
     52 -9.2775E-01 -3.0750E+00 -2.9855E+00  5.4336E+00 -8.7938E+00  5.3955E+00
     69 -9.2775E-01  1.0250E+00 -5.0355E+00  0.0000E+00  0.0000E+00  0.0000E+00
     86 -5.0278E+00 -1.0250E+00 -5.0355E+00  9.7384E+00 -7.6791E+00  4.3110E+00
    103 -2.9778E+00  1.0250E+00 -2.9855E+00 -7.5807E+00  1.0452E+00 -1.4890E+01
    120  3.1722E+00 -5.1250E+00  1.1145E+00  0.0000E+00  0.0000E+00  0.0000E+00
    137  3.1722E+00  1.0250E+00 -9.3553E-01  9.3564E+00 -2.1253E+01  1.6704E+01
    154  1.1222E+00 -5.1250E+00 -9.3553E-01  0.0000E+00  0.0000E+00  0.0000E+00
    171  1.1222E+00  3.0750E+00  1.1145E+00  6.1681E+00  6.1062E+00 -2.1120E+00
    188 -5.0278E+00 -5.1250E+00  1.1145E+00  1.0488E+01 -8.5855E+00 -8.9476E+00
    205 -2.9778E+00  1.0250E+00 -9.3553E-01  1.3066E+01  1.6066E+01 -1.3748E+01
    222  5.2222E+00 -5.1250E+00  3.1645E+00  2.6210E+00  2.2360E+00 -1.9672E+01
    239  5.2222E+00 -3.0750E+00  5.2145E+00  0.0000E+00  0.0000E+00  0.0000E+00
    256 -9.2775E-01  5.1250E+00  5.2145E+00  3.1984E+00 -1.1874E+01 -5.6829E+00
    273 -9.2775E-01 -3.0750E+00  3.1645E+00  0.0000E+00  0.0000E+00  0.0000E+00
    290 -5.0278E+00 -5.1250E+00  3.1645E+00  7.1678E+00 -3.0835E+00 -6.2703E+00
    307 -2.9778E+00 -3.0750E+00  5.2145E+00 -7.0359E+00  7.6031E+00  1.0503E+01
    324 -5.0278E+00  3.0750E+00  5.2145E+00  0.0000E+00  0.0000E+00  0.0000E+00


long range correction for: vdw energy    -0.123802E+01
                         : vdw pressure  -0.210396E+01

 time elapsed since job start =           0.087 seconds

 ------------------------------------------------------------------------------------------------------------------------

     step     eng_tot    temp_tot     eng_cfg     eng_vdw     eng_cou     eng_bnd     eng_ang     eng_dih     eng_tet
 time          eng_pv    temp_rot     vir_cfg     vir_vdw     vir_cou     vir_bnd     vir_ang     vir_con     vir_tet
 cpu time      volume    temp_shl     eng_shl     vir_shl       alpha        beta       gamma     vir_pmf       press

 ------------------------------------------------------------------------------------------------------------------------
        1 -4.2643E+03  2.9573E+03 -4.3465E+03  5.7567E+02 -4.9226E+03  0.0000E+00  0.0000E+00  0.0000E+00  0.0000E+00
   2.000f -4.5300E+03  0.0000E+00  9.6145E+02 -3.9632E+03  4.9239E+03  0.0000E+00  0.0000E+00  0.0000E+00  0.0000E+00
   0.544s  2.3278E+03  0.0000E+00  3.7980E-01  7.5960E-01  9.0157E+01  8.9925E+01  8.9920E+01  0.0000E+00 -1.8048E+02

  rolling -4.2643E+03  2.9573E+03 -4.3465E+03  5.7567E+02 -4.9226E+03  0.0000E+00  0.0000E+00  0.0000E+00  0.0000E+00
 averages -4.5300E+03  0.0000E+00  9.6145E+02 -3.9632E+03  4.9239E+03  0.0000E+00  0.0000E+00  0.0000E+00  0.0000E+00
           2.3278E+03  0.0000E+00  3.7980E-01  7.5960E-01  9.0157E+01  8.9925E+01  8.9920E+01  0.0000E+00 -1.8048E+02
 ------------------------------------------------------------------------------------------------------------------------
       10 -4.2787E+03  8.1937E+02 -4.3015E+03  8.0457E+02 -5.1243E+03  0.0000E+00  0.0000E+00  0.0000E+00  0.0000E+00
  20.000f -4.2671E+03  0.0000E+00  1.0673E+01 -5.1465E+03  5.1207E+03  0.0000E+00  0.0000E+00  0.0000E+00  0.0000E+00
  12.893s  2.1198E+03  0.0000E+00  1.8249E+01  3.6497E+01  8.9826E+01  8.9928E+01  8.9921E+01  0.0000E+00  8.6698E+00

  rolling -4.2804E+03  1.8135E+03 -4.3308E+03  7.6212E+02 -5.1028E+03  0.0000E+00  0.0000E+00  0.0000E+00  0.0000E+00
 averages -4.2963E+03  0.0000E+00  1.4846E+02 -4.9715E+03  5.1002E+03  0.0000E+00  0.0000E+00  0.0000E+00  0.0000E+00
           2.1171E+03  0.0000E+00  9.8738E+00  1.9748E+01  9.0023E+01  8.9938E+01  8.9938E+01  0.0000E+00 -8.6343E+00
 ------------------------------------------------------------------------------------------------------------------------
       20 -4.2121E+03  1.8449E+03 -4.2634E+03  7.9815E+02 -5.0767E+03  0.0000E+00  0.0000E+00  0.0000E+00  0.0000E+00
  40.000f -4.2077E+03  0.0000E+00  8.9212E+01 -5.0066E+03  5.0654E+03  0.0000E+00  0.0000E+00  0.0000E+00  0.0000E+00
  20.982s  2.2652E+03  0.0000E+00  1.5189E+01  3.0379E+01  8.9915E+01  9.0061E+01  8.9973E+01  0.0000E+00  3.1021E+00

  rolling -4.2478E+03  2.0315E+03 -4.3043E+03  7.7829E+02 -5.0959E+03  0.0000E+00  0.0000E+00  0.0000E+00  0.0000E+00
 averages -4.2510E+03  0.0000E+00  1.2260E+02 -4.9950E+03  5.0908E+03  0.0000E+00  0.0000E+00  0.0000E+00  0.0000E+00
           2.1693E+03  0.0000E+00  1.3350E+01  2.6699E+01  8.9877E+01  8.9938E+01  8.9901E+01  0.0000E+00 -8.9594E-01
 ------------------------------------------------------------------------------------------------------------------------
       30 -4.1875E+03  2.6222E+03 -4.2604E+03  7.7103E+02 -5.0485E+03  0.0000E+00  0.0000E+00  0.0000E+00  0.0000E+00
  60.000f -4.1838E+03  0.0000E+00  1.3476E+02 -4.8080E+03  4.9086E+03  0.0000E+00  0.0000E+00  0.0000E+00  0.0000E+00
  33.733s  2.3872E+03  0.0000E+00  1.7117E+01  3.4234E+01  9.0009E+01  9.0104E+01  8.9491E+01  0.0000E+00  2.4259E+00

  rolling -4.2276E+03  2.3376E+03 -4.2926E+03  7.7465E+02 -5.0810E+03  0.0000E+00  0.0000E+00  0.0000E+00  0.0000E+00
 averages -4.2270E+03  0.0000E+00  1.2791E+02 -4.9355E+03  5.0359E+03  0.0000E+00  0.0000E+00  0.0000E+00  0.0000E+00
           2.2302E+03  0.0000E+00  1.3792E+01  2.7584E+01  8.9943E+01  8.9967E+01  8.9854E+01  0.0000E+00  1.3278E+00
 ------------------------------------------------------------------------------------------------------------------------
       40 -4.1742E+03  2.7920E+03 -4.2518E+03  7.7465E+02 -5.0446E+03  0.0000E+00  0.0000E+00  0.0000E+00  0.0000E+00
  80.000f -4.1689E+03  0.0000E+00  1.3936E+02 -4.7949E+03  4.8980E+03  0.0000E+00  0.0000E+00  0.0000E+00  0.0000E+00
  43.894s  2.4582E+03  0.0000E+00  1.8166E+01  3.6332E+01  8.9855E+01  8.9769E+01  8.9018E+01  0.0000E+00  3.3925E+00

  rolling -4.2146E+03  2.4345E+03 -4.2823E+03  7.7448E+02 -5.0719E+03  0.0000E+00  0.0000E+00  0.0000E+00  0.0000E+00
 averages -4.2128E+03  0.0000E+00  1.2994E+02 -4.9027E+03  5.0023E+03  0.0000E+00  0.0000E+00  0.0000E+00  0.0000E+00
           2.2794E+03  0.0000E+00  1.5172E+01  3.0344E+01  8.9912E+01  8.9971E+01  8.9718E+01  0.0000E+00  1.8355E+00
 ------------------------------------------------------------------------------------------------------------------------
       50 -4.1679E+03  2.8718E+03 -4.2477E+03  7.7142E+02 -5.0387E+03  0.0000E+00  0.0000E+00  0.0000E+00  0.0000E+00
 100.000f -4.1664E+03  0.0000E+00  1.5521E+02 -4.7631E+03  4.8790E+03  0.0000E+00  0.0000E+00  0.0000E+00  0.0000E+00
  54.067s  2.5134E+03  0.0000E+00  1.9620E+01  3.9240E+01  8.9932E+01  8.9534E+01  8.8983E+01  0.0000E+00  9.2422E-01

  rolling -4.2053E+03  2.5632E+03 -4.2765E+03  7.7336E+02 -5.0653E+03  0.0000E+00  0.0000E+00  0.0000E+00  0.0000E+00
 averages -4.2032E+03  0.0000E+00  1.3607E+02 -4.8735E+03  4.9786E+03  0.0000E+00  0.0000E+00  0.0000E+00  0.0000E+00
           2.3228E+03  0.0000E+00  1.5447E+01  3.0895E+01  8.9913E+01  8.9903E+01  8.9546E+01  0.0000E+00  1.9137E+00
 ------------------------------------------------------------------------------------------------------------------------
       60 -4.1642E+03  3.2878E+03 -4.2556E+03  7.6713E+02 -5.0404E+03  0.0000E+00  0.0000E+00  0.0000E+00  0.0000E+00
 120.000f -4.1626E+03  0.0000E+00  1.7794E+02 -4.7249E+03  4.8674E+03  0.0000E+00  0.0000E+00  0.0000E+00  0.0000E+00
   1.090m  2.5556E+03  0.0000E+00  1.7713E+01  3.5425E+01  9.0835E+01  8.8918E+01  8.9499E+01  0.0000E+00  9.9178E-01

  rolling -4.1985E+03  2.6472E+03 -4.2720E+03  7.7289E+02 -5.0612E+03  0.0000E+00  0.0000E+00  0.0000E+00  0.0000E+00
 averages -4.1962E+03  0.0000E+00  1.4031E+02 -4.8529E+03  4.9607E+03  0.0000E+00  0.0000E+00  0.0000E+00  0.0000E+00
           2.3583E+03  0.0000E+00  1.6252E+01  3.2505E+01  8.9997E+01  8.9767E+01  8.9498E+01  0.0000E+00  1.9054E+00
 ------------------------------------------------------------------------------------------------------------------------
       70 -4.1727E+03  3.0063E+03 -4.2563E+03  7.6741E+02 -5.0440E+03  0.0000E+00  0.0000E+00  0.0000E+00  0.0000E+00
 140.000f -4.1747E+03  0.0000E+00  1.7318E+02 -4.7382E+03  4.8707E+03  0.0000E+00  0.0000E+00  0.0000E+00  0.0000E+00
   1.249m  2.5450E+03  0.0000E+00  2.0321E+01  4.0643E+01  9.0237E+01  8.9768E+01  8.9610E+01  0.0000E+00 -1.2595E+00

  rolling -4.1948E+03  2.7019E+03 -4.2698E+03  7.7225E+02 -5.0586E+03  0.0000E+00  0.0000E+00  0.0000E+00  0.0000E+00
 averages -4.1930E+03  0.0000E+00  1.4480E+02 -4.8359E+03  4.9476E+03  0.0000E+00  0.0000E+00  0.0000E+00  0.0000E+00
           2.3861E+03  0.0000E+00  1.6543E+01  3.3086E+01  9.0083E+01  8.9713E+01  8.9524E+01  0.0000E+00  1.5351E+00
 ------------------------------------------------------------------------------------------------------------------------
 ------------------------------------------------------------------------------------------------------------------------

     step     eng_tot    temp_tot     eng_cfg     eng_vdw     eng_cou     eng_bnd     eng_ang     eng_dih     eng_tet
 time          eng_pv    temp_rot     vir_cfg     vir_vdw     vir_cou     vir_bnd     vir_ang     vir_con     vir_tet
 cpu time      volume    temp_shl     eng_shl     vir_shl       alpha        beta       gamma     vir_pmf       press

 ------------------------------------------------------------------------------------------------------------------------
       80 -4.1746E+03  3.1659E+03 -4.2626E+03  7.6347E+02 -5.0432E+03  0.0000E+00  0.0000E+00  0.0000E+00  0.0000E+00
 160.000f -4.1771E+03  0.0000E+00  1.8343E+02 -4.7243E+03  4.8734E+03  0.0000E+00  0.0000E+00  0.0000E+00  0.0000E+00
   1.424m  2.5213E+03  0.0000E+00  1.7171E+01  3.4341E+01  9.0166E+01  9.0258E+01  8.9499E+01  0.0000E+00 -1.5602E+00

  rolling -4.1921E+03  2.7548E+03 -4.2687E+03  7.7129E+02 -5.0568E+03  0.0000E+00  0.0000E+00  0.0000E+00  0.0000E+00
 averages -4.1908E+03  0.0000E+00  1.4905E+02 -4.8227E+03  4.9381E+03  0.0000E+00  0.0000E+00  0.0000E+00  0.0000E+00
           2.4044E+03  0.0000E+00  1.6799E+01  3.3598E+01  9.0084E+01  8.9765E+01  8.9518E+01  0.0000E+00  1.2100E+00
 ------------------------------------------------------------------------------------------------------------------------
       90 -4.1794E+03  2.9434E+03 -4.2612E+03  7.6796E+02 -5.0457E+03  0.0000E+00  0.0000E+00  0.0000E+00  0.0000E+00
 180.000f -4.1769E+03  0.0000E+00  1.5607E+02 -4.7578E+03  4.8808E+03  0.0000E+00  0.0000E+00  0.0000E+00  0.0000E+00
   1.603m  2.5016E+03  0.0000E+00  1.6506E+01  3.3012E+01  9.0126E+01  9.0243E+01  8.9859E+01  0.0000E+00  1.5870E+00

  rolling -4.1907E+03  2.7735E+03 -4.2678E+03  7.7083E+02 -5.0555E+03  0.0000E+00  0.0000E+00  0.0000E+00  0.0000E+00
 averages -4.1896E+03  0.0000E+00  1.5084E+02 -4.8145E+03  4.9316E+03  0.0000E+00  0.0000E+00  0.0000E+00  0.0000E+00
           2.4154E+03  0.0000E+00  1.6868E+01  3.3737E+01  9.0092E+01  8.9814E+01  8.9542E+01  0.0000E+00  1.0137E+00
 ------------------------------------------------------------------------------------------------------------------------
      100 -4.1767E+03  2.8426E+03 -4.2557E+03  7.6894E+02 -5.0421E+03  0.0000E+00  0.0000E+00  0.0000E+00  0.0000E+00
 200.000f -4.1774E+03  0.0000E+00  1.6019E+02 -4.7442E+03  4.8693E+03  0.0000E+00  0.0000E+00  0.0000E+00  0.0000E+00
   1.754m  2.5422E+03  0.0000E+00  1.7502E+01  3.5004E+01  9.0117E+01  9.0073E+01  8.9686E+01  0.0000E+00 -4.5477E-01

  rolling -4.1894E+03  2.7884E+03 -4.2669E+03  7.7070E+02 -5.0544E+03  0.0000E+00  0.0000E+00  0.0000E+00  0.0000E+00
 averages -4.1881E+03  0.0000E+00  1.5124E+02 -4.8084E+03  4.9260E+03  0.0000E+00  0.0000E+00  0.0000E+00  0.0000E+00
           2.4266E+03  0.0000E+00  1.6830E+01  3.3660E+01  9.0102E+01  8.9863E+01  8.9561E+01  0.0000E+00  1.0707E+00
 ------------------------------------------------------------------------------------------------------------------------
      110 -4.1735E+03  3.2533E+03 -4.2639E+03  7.5666E+02 -5.0384E+03  0.0000E+00  0.0000E+00  0.0000E+00  0.0000E+00
 220.000f -4.1776E+03  0.0000E+00  1.9311E+02 -4.7065E+03  4.8639E+03  0.0000E+00  0.0000E+00  0.0000E+00  0.0000E+00
   1.930m  2.4945E+03  0.0000E+00  1.7837E+01  3.5674E+01  9.0135E+01  8.9378E+01  8.9965E+01  0.0000E+00 -2.5944E+00

  rolling -4.1786E+03  2.9075E+03 -4.2594E+03  7.7079E+02 -5.0479E+03  0.0000E+00  0.0000E+00  0.0000E+00  0.0000E+00
 averages -4.1761E+03  0.0000E+00  1.5420E+02 -4.7835E+03  4.9023E+03  0.0000E+00  0.0000E+00  0.0000E+00  0.0000E+00
           2.4671E+03  0.0000E+00  1.7710E+01  3.5420E+01  9.0106E+01  8.9827E+01  8.9548E+01  0.0000E+00  1.7025E+00
 ------------------------------------------------------------------------------------------------------------------------
      120 -4.1821E+03  3.1275E+03 -4.2690E+03  7.5988E+02 -5.0445E+03  0.0000E+00  0.0000E+00  0.0000E+00  0.0000E+00
 240.000f -4.1818E+03  0.0000E+00  1.7312E+02 -4.7280E+03  4.8698E+03  0.0000E+00  0.0000E+00  0.0000E+00  0.0000E+00
   2.107m  2.4682E+03  0.0000E+00  1.5675E+01  3.1350E+01  9.0105E+01  9.0198E+01  8.9635E+01  0.0000E+00  1.5292E-01

  rolling -4.1752E+03  2.9976E+03 -4.2585E+03  7.6717E+02 -5.0434E+03  0.0000E+00  0.0000E+00  0.0000E+00  0.0000E+00
 averages -4.1739E+03  0.0000E+00  1.6246E+02 -4.7540E+03  4.8811E+03  0.0000E+00  0.0000E+00  0.0000E+00  0.0000E+00
           2.4922E+03  0.0000E+00  1.7649E+01  3.5298E+01  9.0140E+01  8.9812E+01  8.9539E+01  0.0000E+00  9.2836E-01
 ------------------------------------------------------------------------------------------------------------------------
      130 -4.1871E+03  2.9996E+03 -4.2704E+03  7.5548E+02 -5.0445E+03  0.0000E+00  0.0000E+00  0.0000E+00  0.0000E+00
 260.000f -4.1927E+03  0.0000E+00  1.8344E+02 -4.7226E+03  4.8688E+03  0.0000E+00  0.0000E+00  0.0000E+00  0.0000E+00
   2.264m  2.4298E+03  0.0000E+00  1.8611E+01  3.7222E+01  9.0134E+01  9.0247E+01  8.9963E+01  0.0000E+00 -3.6259E+00

  rolling -4.1751E+03  3.0074E+03 -4.2587E+03  7.6624E+02 -5.0428E+03  0.0000E+00  0.0000E+00  0.0000E+00  0.0000E+00
 averages -4.1749E+03  0.0000E+00  1.6653E+02 -4.7447E+03  4.8755E+03  0.0000E+00  0.0000E+00  0.0000E+00  0.0000E+00
           2.5024E+03  0.0000E+00  1.7883E+01  3.5767E+01  9.0160E+01  8.9839E+01  8.9548E+01  0.0000E+00  1.3904E-01
 ------------------------------------------------------------------------------------------------------------------------
      140 -4.1907E+03  3.5073E+03 -4.2882E+03  7.4321E+02 -5.0466E+03  0.0000E+00  0.0000E+00  0.0000E+00  0.0000E+00
 280.000f -4.1925E+03  0.0000E+00  2.0034E+02 -4.7074E+03  4.8774E+03  0.0000E+00  0.0000E+00  0.0000E+00  0.0000E+00
   2.439m  2.3632E+03  0.0000E+00  1.5199E+01  3.0397E+01  8.9742E+01  8.9711E+01  8.9587E+01  0.0000E+00 -1.2030E+00

  rolling -4.1765E+03  3.0624E+03 -4.2616E+03  7.6357E+02 -5.0428E+03  0.0000E+00  0.0000E+00  0.0000E+00  0.0000E+00
 averages -4.1772E+03  0.0000E+00  1.7242E+02 -4.7353E+03  4.8725E+03  0.0000E+00  0.0000E+00  0.0000E+00  0.0000E+00
           2.4986E+03  0.0000E+00  1.7624E+01  3.5248E+01  9.0153E+01  8.9841E+01  8.9593E+01  0.0000E+00 -4.8057E-01
 ------------------------------------------------------------------------------------------------------------------------
      150 -4.2045E+03  2.8228E+03 -4.2830E+03  7.5621E+02 -5.0555E+03  0.0000E+00  0.0000E+00  0.0000E+00  0.0000E+00
 300.000f -4.2049E+03  0.0000E+00  1.5817E+02 -4.7634E+03  4.8889E+03  0.0000E+00  0.0000E+00  0.0000E+00  0.0000E+00
   2.592m  2.3458E+03  0.0000E+00  1.6321E+01  3.2641E+01  9.0208E+01  8.9649E+01  8.9628E+01  0.0000E+00 -2.8484E-01

  rolling -4.1802E+03  3.0433E+03 -4.2647E+03  7.6208E+02 -5.0444E+03  0.0000E+00  0.0000E+00  0.0000E+00  0.0000E+00
 averages -4.1814E+03  0.0000E+00  1.7273E+02 -4.7354E+03  4.8730E+03  0.0000E+00  0.0000E+00  0.0000E+00  0.0000E+00
           2.4837E+03  0.0000E+00  1.7572E+01  3.5145E+01  9.0166E+01  8.9841E+01  8.9661E+01  0.0000E+00 -7.7583E-01
 ------------------------------------------------------------------------------------------------------------------------
 ------------------------------------------------------------------------------------------------------------------------

     step     eng_tot    temp_tot     eng_cfg     eng_vdw     eng_cou     eng_bnd     eng_ang     eng_dih     eng_tet
 time          eng_pv    temp_rot     vir_cfg     vir_vdw     vir_cou     vir_bnd     vir_ang     vir_con     vir_tet
 cpu time      volume    temp_shl     eng_shl     vir_shl       alpha        beta       gamma     vir_pmf       press

 ------------------------------------------------------------------------------------------------------------------------
      160 -4.2001E+03  3.0188E+03 -4.2840E+03  7.5054E+02 -5.0518E+03  0.0000E+00  0.0000E+00  0.0000E+00  0.0000E+00
 320.000f -4.2017E+03  0.0000E+00  1.7245E+02 -4.7459E+03  4.8839E+03  0.0000E+00  0.0000E+00  0.0000E+00  0.0000E+00
   2.759m  2.3335E+03  0.0000E+00  1.7200E+01  3.4400E+01  9.0157E+01  8.9952E+01  9.0206E+01  0.0000E+00 -1.0526E+00

  rolling -4.1837E+03  3.0376E+03 -4.2681E+03  7.6022E+02 -5.0455E+03  0.0000E+00  0.0000E+00  0.0000E+00  0.0000E+00
 averages -4.1853E+03  0.0000E+00  1.7361E+02 -4.7350E+03  4.8743E+03  0.0000E+00  0.0000E+00  0.0000E+00  0.0000E+00
           2.4644E+03  0.0000E+00  1.7184E+01  3.4367E+01  9.0147E+01  8.9908E+01  8.9743E+01  0.0000E+00 -1.0281E+00
 ------------------------------------------------------------------------------------------------------------------------
      170 -4.2014E+03  3.0618E+03 -4.2865E+03  7.4990E+02 -5.0518E+03  0.0000E+00  0.0000E+00  0.0000E+00  0.0000E+00
 340.000f -4.2003E+03  0.0000E+00  1.6677E+02 -4.7477E+03  4.8837E+03  0.0000E+00  0.0000E+00  0.0000E+00  0.0000E+00
   2.912m  2.3270E+03  0.0000E+00  1.5389E+01  3.0778E+01  9.0173E+01  8.9793E+01  8.9436E+01  0.0000E+00  7.7352E-01

  rolling -4.1866E+03  3.0441E+03 -4.2712E+03  7.5826E+02 -5.0464E+03  0.0000E+00  0.0000E+00  0.0000E+00  0.0000E+00
 averages -4.1881E+03  0.0000E+00  1.7369E+02 -4.7361E+03  4.8758E+03  0.0000E+00  0.0000E+00  0.0000E+00  0.0000E+00
           2.4417E+03  0.0000E+00  1.6960E+01  3.3920E+01  9.0100E+01  8.9962E+01  8.9748E+01  0.0000E+00 -9.7209E-01
 ------------------------------------------------------------------------------------------------------------------------
      180 -4.2027E+03  2.9879E+03 -4.2858E+03  7.5081E+02 -5.0525E+03  0.0000E+00  0.0000E+00  0.0000E+00  0.0000E+00
 360.000f -4.2049E+03  0.0000E+00  1.7275E+02 -4.7425E+03  4.8833E+03  0.0000E+00  0.0000E+00  0.0000E+00  0.0000E+00
   3.083m  2.3282E+03  0.0000E+00  1.5968E+01  3.1936E+01  9.0051E+01  8.9952E+01  8.9821E+01  0.0000E+00 -1.5113E+00

  rolling -4.1895E+03  3.0224E+03 -4.2735E+03  7.5713E+02 -5.0473E+03  0.0000E+00  0.0000E+00  0.0000E+00  0.0000E+00
 averages -4.1908E+03  0.0000E+00  1.7205E+02 -4.7385E+03  4.8771E+03  0.0000E+00  0.0000E+00  0.0000E+00  0.0000E+00
           2.4216E+03  0.0000E+00  1.6716E+01  3.3431E+01  9.0100E+01  8.9933E+01  8.9759E+01  0.0000E+00 -8.8220E-01
 ------------------------------------------------------------------------------------------------------------------------
      190 -4.2034E+03  2.9687E+03 -4.2859E+03  7.5167E+02 -5.0567E+03  0.0000E+00  0.0000E+00  0.0000E+00  0.0000E+00
 380.000f -4.2017E+03  0.0000E+00  1.5985E+02 -4.7702E+03  4.8917E+03  0.0000E+00  0.0000E+00  0.0000E+00  0.0000E+00
   3.229m  2.3064E+03  0.0000E+00  1.9144E+01  3.8287E+01  9.0105E+01  9.0214E+01  8.9412E+01  0.0000E+00  1.1783E+00

  rolling -4.1918E+03  3.0378E+03 -4.2763E+03  7.5521E+02 -5.0482E+03  0.0000E+00  0.0000E+00  0.0000E+00  0.0000E+00
 averages -4.1932E+03  0.0000E+00  1.7298E+02 -4.7383E+03  4.8779E+03  0.0000E+00  0.0000E+00  0.0000E+00  0.0000E+00
           2.4024E+03  0.0000E+00  1.6702E+01  3.3405E+01  9.0094E+01  8.9933E+01  8.9756E+01  0.0000E+00 -9.0444E-01
 ------------------------------------------------------------------------------------------------------------------------
      200 -4.2019E+03  3.0597E+03 -4.2869E+03  7.5135E+02 -5.0532E+03  0.0000E+00  0.0000E+00  0.0000E+00  0.0000E+00
 400.000f -4.2017E+03  0.0000E+00  1.6951E+02 -4.7443E+03  4.8839E+03  0.0000E+00  0.0000E+00  0.0000E+00  0.0000E+00
   3.384m  2.3412E+03  0.0000E+00  1.4953E+01  2.9906E+01  9.0377E+01  8.9907E+01  9.0032E+01  0.0000E+00  1.2551E-01

  rolling -4.1943E+03  3.0433E+03 -4.2789E+03  7.5362E+02 -5.0493E+03  0.0000E+00  0.0000E+00  0.0000E+00  0.0000E+00
 averages -4.1957E+03  0.0000E+00  1.7336E+02 -4.7393E+03  4.8791E+03  0.0000E+00  0.0000E+00  0.0000E+00  0.0000E+00
           2.3824E+03  0.0000E+00  1.6762E+01  3.3524E+01  9.0093E+01  8.9889E+01  8.9747E+01  0.0000E+00 -9.0635E-01
 ------------------------------------------------------------------------------------------------------------------------


 switching off temperature scaling at step    200


 ------------------------------------------------------------------------------------------------------------------------
      210 -4.2034E+03  2.8246E+03 -4.2819E+03  7.5539E+02 -5.0567E+03  0.0000E+00  0.0000E+00  0.0000E+00  0.0000E+00
 420.000f -4.2032E+03  0.0000E+00  1.5628E+02 -4.7765E+03  4.8941E+03  0.0000E+00  0.0000E+00  0.0000E+00  0.0000E+00
   3.541m  2.3248E+03  0.0000E+00  1.9369E+01  3.8738E+01  9.0726E+01  9.0095E+01  9.0256E+01  0.0000E+00  1.6205E-01

  rolling -4.1974E+03  3.0334E+03 -4.2817E+03  7.5260E+02 -5.0509E+03  0.0000E+00  0.0000E+00  0.0000E+00  0.0000E+00
 averages -4.1986E+03  0.0000E+00  1.7205E+02 -4.7428E+03  4.8816E+03  0.0000E+00  0.0000E+00  0.0000E+00  0.0000E+00
           2.3634E+03  0.0000E+00  1.6630E+01  3.3260E+01  9.0150E+01  8.9943E+01  8.9787E+01  0.0000E+00 -7.5233E-01
 ------------------------------------------------------------------------------------------------------------------------
      220 -4.2029E+03  2.9143E+03 -4.2839E+03  7.5657E+02 -5.0561E+03  0.0000E+00  0.0000E+00  0.0000E+00  0.0000E+00
 440.000f -4.2016E+03  0.0000E+00  1.5803E+02 -4.7639E+03  4.8907E+03  0.0000E+00  0.0000E+00  0.0000E+00  0.0000E+00
   3.712m  2.3479E+03  0.0000E+00  1.5628E+01  3.1257E+01  8.9811E+01  8.9919E+01  8.9936E+01  0.0000E+00  8.8792E-01

  rolling -4.1993E+03  3.0085E+03 -4.2829E+03  7.5320E+02 -5.0528E+03  0.0000E+00  0.0000E+00  0.0000E+00  0.0000E+00
 averages -4.2001E+03  0.0000E+00  1.6971E+02 -4.7521E+03  4.8884E+03  0.0000E+00  0.0000E+00  0.0000E+00  0.0000E+00
           2.3487E+03  0.0000E+00  1.6723E+01  3.3445E+01  9.0158E+01  8.9961E+01  8.9812E+01  0.0000E+00 -5.4031E-01
 ------------------------------------------------------------------------------------------------------------------------
      230 -4.2023E+03  2.9359E+03 -4.2839E+03  7.5385E+02 -5.0539E+03  0.0000E+00  0.0000E+00  0.0000E+00  0.0000E+00
 460.000f -4.2023E+03  0.0000E+00  1.6313E+02 -4.7571E+03  4.8878E+03  0.0000E+00  0.0000E+00  0.0000E+00  0.0000E+00
   3.885m  2.3487E+03  0.0000E+00  1.6190E+01  3.2380E+01  8.9819E+01  8.9946E+01  8.9840E+01  0.0000E+00  1.0555E-02

  rolling -4.2009E+03  2.9916E+03 -4.2841E+03  7.5296E+02 -5.0537E+03  0.0000E+00  0.0000E+00  0.0000E+00  0.0000E+00
 averages -4.2014E+03  0.0000E+00  1.6781E+02 -4.7559E+03  4.8903E+03  0.0000E+00  0.0000E+00  0.0000E+00  0.0000E+00
           2.3383E+03  0.0000E+00  1.6672E+01  3.3344E+01  9.0103E+01  8.9926E+01  8.9813E+01  0.0000E+00 -3.3325E-01
 ------------------------------------------------------------------------------------------------------------------------
 ------------------------------------------------------------------------------------------------------------------------

     step     eng_tot    temp_tot     eng_cfg     eng_vdw     eng_cou     eng_bnd     eng_ang     eng_dih     eng_tet
 time          eng_pv    temp_rot     vir_cfg     vir_vdw     vir_cou     vir_bnd     vir_ang     vir_con     vir_tet
 cpu time      volume    temp_shl     eng_shl     vir_shl       alpha        beta       gamma     vir_pmf       press

 ------------------------------------------------------------------------------------------------------------------------
      240 -4.2025E+03  2.9087E+03 -4.2833E+03  7.5452E+02 -5.0535E+03  0.0000E+00  0.0000E+00  0.0000E+00  0.0000E+00
 480.000f -4.2018E+03  0.0000E+00  1.5986E+02 -4.7595E+03  4.8879E+03  0.0000E+00  0.0000E+00  0.0000E+00  0.0000E+00
   4.041m  2.3506E+03  0.0000E+00  1.5722E+01  3.1445E+01  8.9992E+01  8.9774E+01  8.9624E+01  0.0000E+00  4.0732E-01

  rolling -4.2023E+03  2.9663E+03 -4.2847E+03  7.5345E+02 -5.0547E+03  0.0000E+00  0.0000E+00  0.0000E+00  0.0000E+00
 averages -4.2023E+03  0.0000E+00  1.6506E+02 -4.7599E+03  4.8919E+03  0.0000E+00  0.0000E+00  0.0000E+00  0.0000E+00
           2.3343E+03  0.0000E+00  1.6539E+01  3.3079E+01  9.0124E+01  8.9908E+01  8.9814E+01  0.0000E+00 -3.6235E-02
 ------------------------------------------------------------------------------------------------------------------------
      250 -4.2013E+03  2.8623E+03 -4.2808E+03  7.5693E+02 -5.0536E+03  0.0000E+00  0.0000E+00  0.0000E+00  0.0000E+00
 500.000f -4.2014E+03  0.0000E+00  1.5951E+02 -4.7615E+03  4.8894E+03  0.0000E+00  0.0000E+00  0.0000E+00  0.0000E+00
   4.219m  2.3603E+03  0.0000E+00  1.5787E+01  3.1573E+01  8.9692E+01  9.0128E+01  8.9988E+01  0.0000E+00 -9.2641E-02

  rolling -4.2020E+03  2.9625E+03 -4.2843E+03  7.5369E+02 -5.0544E+03  0.0000E+00  0.0000E+00  0.0000E+00  0.0000E+00
 averages -4.2019E+03  0.0000E+00  1.6434E+02 -4.7603E+03  4.8917E+03  0.0000E+00  0.0000E+00  0.0000E+00  0.0000E+00
           2.3352E+03  0.0000E+00  1.6452E+01  3.2905E+01  9.0105E+01  8.9940E+01  8.9835E+01  0.0000E+00  7.6797E-02
 ------------------------------------------------------------------------------------------------------------------------
      260 -4.1910E+03  2.9086E+03 -4.2718E+03  7.8442E+02 -5.0729E+03  0.0000E+00  0.0000E+00  0.0000E+00  0.0000E+00
 520.000f -4.1918E+03  0.0000E+00  1.6402E+02 -4.9248E+03  5.0554E+03  0.0000E+00  0.0000E+00  0.0000E+00  0.0000E+00
   4.425m  2.2987E+03  0.0000E+00  1.6660E+01  3.3320E+01  8.9894E+01  8.9986E+01  8.9619E+01  0.0000E+00 -5.3878E-01

  rolling -4.2014E+03  2.9424E+03 -4.2832E+03  7.5591E+02 -5.0557E+03  0.0000E+00  0.0000E+00  0.0000E+00  0.0000E+00
 averages -4.2017E+03  0.0000E+00  1.6424E+02 -4.7718E+03  4.9030E+03  0.0000E+00  0.0000E+00  0.0000E+00  0.0000E+00
           2.3335E+03  0.0000E+00  1.6559E+01  3.3117E+01  9.0060E+01  8.9966E+01  8.9809E+01  0.0000E+00 -1.5246E-01
 ------------------------------------------------------------------------------------------------------------------------
      270 -4.1918E+03  2.9407E+03 -4.2735E+03  7.8203E+02 -5.0717E+03  0.0000E+00  0.0000E+00  0.0000E+00  0.0000E+00
 540.000f -4.1934E+03  0.0000E+00  1.6807E+02 -4.9197E+03  5.0555E+03  0.0000E+00  0.0000E+00  0.0000E+00  0.0000E+00
   4.605m  2.2856E+03  0.0000E+00  1.6112E+01  3.2223E+01  8.9615E+01  8.9723E+01  8.9686E+01  0.0000E+00 -1.0658E+00

  rolling -4.2005E+03  2.9390E+03 -4.2821E+03  7.5914E+02 -5.0577E+03  0.0000E+00  0.0000E+00  0.0000E+00  0.0000E+00
 averages -4.2008E+03  0.0000E+00  1.6429E+02 -4.7887E+03  4.9201E+03  0.0000E+00  0.0000E+00  0.0000E+00  0.0000E+00
           2.3302E+03  0.0000E+00  1.6458E+01  3.2915E+01  9.0041E+01  8.9969E+01  8.9799E+01  0.0000E+00 -2.0809E-01
 ------------------------------------------------------------------------------------------------------------------------
      280 -4.1994E+03  2.8459E+03 -4.2785E+03  7.6929E+02 -5.0652E+03  0.0000E+00  0.0000E+00  0.0000E+00  0.0000E+00
 560.000f -4.1883E+03  0.0000E+00  1.2494E+02 -4.8545E+03  4.9445E+03  0.0000E+00  0.0000E+00  0.0000E+00  0.0000E+00
   4.788m  2.2973E+03  0.0000E+00  1.7499E+01  3.4997E+01  8.9387E+01  9.0002E+01  8.9620E+01  0.0000E+00  7.6256E+00

  rolling -4.1996E+03  2.9395E+03 -4.2813E+03  7.6147E+02 -5.0593E+03  0.0000E+00  0.0000E+00  0.0000E+00  0.0000E+00
 averages -4.1997E+03  0.0000E+00  1.6362E+02 -4.8029E+03  4.9335E+03  0.0000E+00  0.0000E+00  0.0000E+00  0.0000E+00
           2.3257E+03  0.0000E+00  1.6490E+01  3.2980E+01  8.9986E+01  8.9958E+01  8.9811E+01  0.0000E+00 -4.5255E-02
 ------------------------------------------------------------------------------------------------------------------------
      290 -4.1977E+03  3.0215E+03 -4.2817E+03  7.4843E+02 -5.0473E+03  0.0000E+00  0.0000E+00  0.0000E+00  0.0000E+00
 580.000f -4.2144E+03  0.0000E+00  2.1790E+02 -4.7381E+03  4.9217E+03  0.0000E+00  0.0000E+00  0.0000E+00  0.0000E+00
   4.964m  2.3283E+03  0.0000E+00  1.7146E+01  3.4292E+01  9.0172E+01  9.0243E+01  8.9772E+01  0.0000E+00 -1.1310E+01

  rolling -4.1993E+03  2.9164E+03 -4.2804E+03  7.6248E+02 -5.0594E+03  0.0000E+00  0.0000E+00  0.0000E+00  0.0000E+00
 averages -4.1993E+03  0.0000E+00  1.6216E+02 -4.8068E+03  4.9357E+03  0.0000E+00  0.0000E+00  0.0000E+00  0.0000E+00
           2.3265E+03  0.0000E+00  1.6620E+01  3.3239E+01  8.9998E+01  8.9951E+01  8.9819E+01  0.0000E+00 -4.9900E-03
 ------------------------------------------------------------------------------------------------------------------------
      300 -4.1926E+03  3.2259E+03 -4.2822E+03  7.7095E+02 -5.0705E+03  0.0000E+00  0.0000E+00  0.0000E+00  0.0000E+00
 600.000f -4.1993E+03  0.0000E+00  1.9951E+02 -4.8927E+03  5.0576E+03  0.0000E+00  0.0000E+00  0.0000E+00  0.0000E+00
   5.171m  2.2528E+03  0.0000E+00  1.7317E+01  3.4634E+01  8.9684E+01  8.9758E+01  8.9682E+01  0.0000E+00 -4.7291E+00

  rolling -4.1988E+03  2.9355E+03 -4.2804E+03  7.6289E+02 -5.0599E+03  0.0000E+00  0.0000E+00  0.0000E+00  0.0000E+00
 averages -4.1995E+03  0.0000E+00  1.6519E+02 -4.8113E+03  4.9433E+03  0.0000E+00  0.0000E+00  0.0000E+00  0.0000E+00
           2.3226E+03  0.0000E+00  1.6594E+01  3.3189E+01  8.9966E+01  8.9973E+01  8.9850E+01  0.0000E+00 -4.5518E-01
 ------------------------------------------------------------------------------------------------------------------------
      310 -4.1935E+03  2.8624E+03 -4.2730E+03  7.8478E+02 -5.0782E+03  0.0000E+00  0.0000E+00  0.0000E+00  0.0000E+00
 620.000f -4.1923E+03  0.0000E+00  1.5555E+02 -4.9516E+03  5.0663E+03  0.0000E+00  0.0000E+00  0.0000E+00  0.0000E+00
   5.376m  2.2514E+03  0.0000E+00  2.0429E+01  4.0858E+01  9.0138E+01  8.9921E+01  9.0162E+01  0.0000E+00  8.3043E-01

  rolling -4.1978E+03  2.9539E+03 -4.2799E+03  7.6554E+02 -5.0622E+03  0.0000E+00  0.0000E+00  0.0000E+00  0.0000E+00
 averages -4.1983E+03  0.0000E+00  1.6566E+02 -4.8286E+03  4.9609E+03  0.0000E+00  0.0000E+00  0.0000E+00  0.0000E+00
           2.3140E+03  0.0000E+00  1.6702E+01  3.3405E+01  8.9920E+01  8.9939E+01  8.9823E+01  0.0000E+00 -3.2857E-01
 ------------------------------------------------------------------------------------------------------------------------
 ------------------------------------------------------------------------------------------------------------------------

     step     eng_tot    temp_tot     eng_cfg     eng_vdw     eng_cou     eng_bnd     eng_ang     eng_dih     eng_tet
 time          eng_pv    temp_rot     vir_cfg     vir_vdw     vir_cou     vir_bnd     vir_ang     vir_con     vir_tet
 cpu time      volume    temp_shl     eng_shl     vir_shl       alpha        beta       gamma     vir_pmf       press

 ------------------------------------------------------------------------------------------------------------------------
      320 -4.1925E+03  3.1001E+03 -4.2786E+03  7.8184E+02 -5.0764E+03  0.0000E+00  0.0000E+00  0.0000E+00  0.0000E+00
 640.000f -4.1914E+03  0.0000E+00  1.6930E+02 -4.9268E+03  5.0642E+03  0.0000E+00  0.0000E+00  0.0000E+00  0.0000E+00
   5.576m  2.2691E+03  0.0000E+00  1.5927E+01  3.1854E+01  8.9854E+01  8.9834E+01  9.0232E+01  0.0000E+00  6.9968E-01

  rolling -4.1971E+03  2.9505E+03 -4.2790E+03  7.6764E+02 -5.0636E+03  0.0000E+00  0.0000E+00  0.0000E+00  0.0000E+00
 averages -4.1976E+03  0.0000E+00  1.6562E+02 -4.8417E+03  4.9736E+03  0.0000E+00  0.0000E+00  0.0000E+00  0.0000E+00
           2.3077E+03  0.0000E+00  1.6874E+01  3.3747E+01  8.9893E+01  8.9928E+01  8.9851E+01  0.0000E+00 -3.6470E-01
 ------------------------------------------------------------------------------------------------------------------------
      330 -4.1947E+03  2.7887E+03 -4.2722E+03  7.8579E+02 -5.0770E+03  0.0000E+00  0.0000E+00  0.0000E+00  0.0000E+00
 660.000f -4.1822E+03  0.0000E+00  1.1753E+02 -4.9513E+03  5.0308E+03  0.0000E+00  0.0000E+00  0.0000E+00  0.0000E+00
   5.747m  2.2605E+03  0.0000E+00  1.9021E+01  3.8041E+01  8.9774E+01  9.0443E+01  8.9951E+01  0.0000E+00  8.7378E+00

  rolling -4.1961E+03  2.9558E+03 -4.2783E+03  7.7020E+02 -5.0655E+03  0.0000E+00  0.0000E+00  0.0000E+00  0.0000E+00
 averages -4.1966E+03  0.0000E+00  1.6573E+02 -4.8577E+03  4.9895E+03  0.0000E+00  0.0000E+00  0.0000E+00  0.0000E+00
           2.2999E+03  0.0000E+00  1.6996E+01  3.3993E+01  8.9909E+01  8.9957E+01  8.9868E+01  0.0000E+00 -3.2041E-01
 ------------------------------------------------------------------------------------------------------------------------
      340 -4.2026E+03  3.0915E+03 -4.2885E+03  7.4652E+02 -5.0516E+03  0.0000E+00  0.0000E+00  0.0000E+00  0.0000E+00
 680.000f -4.2017E+03  0.0000E+00  1.6912E+02 -4.7537E+03  4.8897E+03  0.0000E+00  0.0000E+00  0.0000E+00  0.0000E+00
   5.912m  2.2956E+03  0.0000E+00  1.6546E+01  3.3092E+01  8.9864E+01  9.0021E+01  8.9894E+01  0.0000E+00  6.2214E-01

  rolling -4.1958E+03  2.9552E+03 -4.2780E+03  7.7073E+02 -5.0658E+03  0.0000E+00  0.0000E+00  0.0000E+00  0.0000E+00
 averages -4.1962E+03  0.0000E+00  1.6535E+02 -4.8637E+03  4.9947E+03  0.0000E+00  0.0000E+00  0.0000E+00  0.0000E+00
           2.2933E+03  0.0000E+00  1.7148E+01  3.4296E+01  8.9906E+01  8.9982E+01  8.9897E+01  0.0000E+00 -2.3982E-01
 ------------------------------------------------------------------------------------------------------------------------
      350 -4.2024E+03  3.0636E+03 -4.2876E+03  7.4963E+02 -5.0540E+03  0.0000E+00  0.0000E+00  0.0000E+00  0.0000E+00
 700.000f -4.2015E+03  0.0000E+00  1.6756E+02 -4.7534E+03  4.8872E+03  0.0000E+00  0.0000E+00  0.0000E+00  0.0000E+00
   6.087m  2.3113E+03  0.0000E+00  1.6855E+01  3.3709E+01  9.0113E+01  8.9833E+01  8.9919E+01  0.0000E+00  6.2204E-01

  rolling -4.1959E+03  2.9714E+03 -4.2785E+03  7.7007E+02 -5.0659E+03  0.0000E+00  0.0000E+00  0.0000E+00  0.0000E+00
 averages -4.1962E+03  0.0000E+00  1.6610E+02 -4.8635E+03  4.9948E+03  0.0000E+00  0.0000E+00  0.0000E+00  0.0000E+00
           2.2881E+03  0.0000E+00  1.7389E+01  3.4778E+01  8.9910E+01  8.9972E+01  8.9893E+01  0.0000E+00 -2.0417E-01
 ------------------------------------------------------------------------------------------------------------------------
      360 -4.2022E+03  2.9393E+03 -4.2839E+03  7.5144E+02 -5.0516E+03  0.0000E+00  0.0000E+00  0.0000E+00  0.0000E+00
 720.000f -4.2021E+03  0.0000E+00  1.6293E+02 -4.7545E+03  4.8849E+03  0.0000E+00  0.0000E+00  0.0000E+00  0.0000E+00
   6.243m  2.3174E+03  0.0000E+00  1.6294E+01  3.2589E+01  9.0125E+01  9.0114E+01  8.9898E+01  0.0000E+00  1.0177E-01

  rolling -4.1967E+03  2.9892E+03 -4.2798E+03  7.6776E+02 -5.0648E+03  0.0000E+00  0.0000E+00  0.0000E+00  0.0000E+00
 averages -4.1965E+03  0.0000E+00  1.6567E+02 -4.8527E+03  4.9838E+03  0.0000E+00  0.0000E+00  0.0000E+00  0.0000E+00
           2.2871E+03  0.0000E+00  1.7287E+01  3.4575E+01  8.9955E+01  8.9972E+01  8.9912E+01  0.0000E+00  1.1524E-01
 ------------------------------------------------------------------------------------------------------------------------
      370 -4.2032E+03  3.0391E+03 -4.2876E+03  7.4669E+02 -5.0518E+03  0.0000E+00  0.0000E+00  0.0000E+00  0.0000E+00
 740.000f -4.2047E+03  0.0000E+00  1.7366E+02 -4.7463E+03  4.8850E+03  0.0000E+00  0.0000E+00  0.0000E+00  0.0000E+00
   6.410m  2.3073E+03  0.0000E+00  1.7496E+01  3.4991E+01  8.9779E+01  9.0103E+01  8.9647E+01  0.0000E+00 -1.0846E+00

  rolling -4.1978E+03  2.9854E+03 -4.2808E+03  7.6446E+02 -5.0626E+03  0.0000E+00  0.0000E+00  0.0000E+00  0.0000E+00
 averages -4.1976E+03  0.0000E+00  1.6543E+02 -4.8359E+03  4.9665E+03  0.0000E+00  0.0000E+00  0.0000E+00  0.0000E+00
           2.2893E+03  0.0000E+00  1.7399E+01  3.4798E+01  8.9951E+01  8.9988E+01  8.9915E+01  0.0000E+00  1.2347E-01
 ------------------------------------------------------------------------------------------------------------------------
      380 -4.2031E+03  2.9081E+03 -4.2839E+03  7.5068E+02 -5.0518E+03  0.0000E+00  0.0000E+00  0.0000E+00  0.0000E+00
 760.000f -4.2007E+03  0.0000E+00  1.5446E+02 -4.7665E+03  4.8864E+03  0.0000E+00  0.0000E+00  0.0000E+00  0.0000E+00
   6.553m  2.3113E+03  0.0000E+00  1.7253E+01  3.4505E+01  9.0081E+01  8.9518E+01  9.0438E+01  0.0000E+00  1.6363E+00

  rolling -4.1987E+03  2.9906E+03 -4.2818E+03  7.6168E+02 -5.0611E+03  0.0000E+00  0.0000E+00  0.0000E+00  0.0000E+00
 averages -4.1987E+03  0.0000E+00  1.6615E+02 -4.8225E+03  4.9535E+03  0.0000E+00  0.0000E+00  0.0000E+00  0.0000E+00
           2.2911E+03  0.0000E+00  1.7597E+01  3.5194E+01  8.9979E+01  9.0000E+01  8.9957E+01  0.0000E+00  2.4259E-02
 ------------------------------------------------------------------------------------------------------------------------
      390 -4.2029E+03  2.9445E+03 -4.2847E+03  7.4916E+02 -5.0523E+03  0.0000E+00  0.0000E+00  0.0000E+00  0.0000E+00
 780.000f -4.2046E+03  0.0000E+00  1.6879E+02 -4.7548E+03  4.8867E+03  0.0000E+00  0.0000E+00  0.0000E+00  0.0000E+00
   6.725m  2.3128E+03  0.0000E+00  1.8471E+01  3.6941E+01  8.9632E+01  8.9660E+01  9.0293E+01  0.0000E+00 -1.1683E+00

  rolling -4.1990E+03  3.0022E+03 -4.2824E+03  7.6074E+02 -5.0606E+03  0.0000E+00  0.0000E+00  0.0000E+00  0.0000E+00
 averages -4.1989E+03  0.0000E+00  1.6671E+02 -4.8191E+03  4.9509E+03  0.0000E+00  0.0000E+00  0.0000E+00  0.0000E+00
           2.2910E+03  0.0000E+00  1.7425E+01  3.4851E+01  8.9950E+01  8.9931E+01  9.0014E+01  0.0000E+00  4.1122E-02
 ------------------------------------------------------------------------------------------------------------------------
 ------------------------------------------------------------------------------------------------------------------------

     step     eng_tot    temp_tot     eng_cfg     eng_vdw     eng_cou     eng_bnd     eng_ang     eng_dih     eng_tet
 time          eng_pv    temp_rot     vir_cfg     vir_vdw     vir_cou     vir_bnd     vir_ang     vir_con     vir_tet
 cpu time      volume    temp_shl     eng_shl     vir_shl       alpha        beta       gamma     vir_pmf       press

 ------------------------------------------------------------------------------------------------------------------------
      400 -4.2020E+03  2.9416E+03 -4.2838E+03  7.5098E+02 -5.0531E+03  0.0000E+00  0.0000E+00  0.0000E+00  0.0000E+00
 800.000f -4.2012E+03  0.0000E+00  1.6090E+02 -4.7618E+03  4.8861E+03  0.0000E+00  0.0000E+00  0.0000E+00  0.0000E+00
   6.887m  2.3141E+03  0.0000E+00  1.8315E+01  3.6630E+01  8.9532E+01  9.0477E+01  9.0022E+01  0.0000E+00  5.9288E-01

  rolling -4.1995E+03  2.9711E+03 -4.2821E+03  7.6017E+02 -5.0599E+03  0.0000E+00  0.0000E+00  0.0000E+00  0.0000E+00
 averages -4.1990E+03  0.0000E+00  1.6360E+02 -4.8152E+03  4.9435E+03  0.0000E+00  0.0000E+00  0.0000E+00  0.0000E+00
           2.2930E+03  0.0000E+00  1.7666E+01  3.5332E+01  8.9916E+01  8.9938E+01  9.0042E+01  0.0000E+00  3.5906E-01
 ------------------------------------------------------------------------------------------------------------------------
      410 -4.2029E+03  3.1591E+03 -4.2906E+03  7.4639E+02 -5.0528E+03  0.0000E+00  0.0000E+00  0.0000E+00  0.0000E+00
 820.000f -4.2036E+03  0.0000E+00  1.7783E+02 -4.7382E+03  4.8845E+03  0.0000E+00  0.0000E+00  0.0000E+00  0.0000E+00
   7.057m  2.3130E+03  0.0000E+00  1.5754E+01  3.1507E+01  9.0016E+01  9.0068E+01  8.9727E+01  0.0000E+00 -5.1126E-01

  rolling -4.2004E+03  2.9741E+03 -4.2830E+03  7.5703E+02 -5.0576E+03  0.0000E+00  0.0000E+00  0.0000E+00  0.0000E+00
 averages -4.2000E+03  0.0000E+00  1.6404E+02 -4.7965E+03  4.9255E+03  0.0000E+00  0.0000E+00  0.0000E+00  0.0000E+00
           2.2999E+03  0.0000E+00  1.7539E+01  3.5078E+01  8.9870E+01  8.9990E+01  9.0028E+01  0.0000E+00  2.9377E-01
 ------------------------------------------------------------------------------------------------------------------------
      420 -4.2031E+03  2.8402E+03 -4.2820E+03  7.5558E+02 -5.0573E+03  0.0000E+00  0.0000E+00  0.0000E+00  0.0000E+00
 840.000f -4.2019E+03  0.0000E+00  1.5446E+02 -4.7799E+03  4.8950E+03  0.0000E+00  0.0000E+00  0.0000E+00  0.0000E+00
   7.239m  2.3031E+03  0.0000E+00  1.9688E+01  3.9375E+01  9.0242E+01  9.0097E+01  9.0594E+01  0.0000E+00  7.7970E-01

  rolling -4.2014E+03  2.9815E+03 -4.2843E+03  7.5362E+02 -5.0553E+03  0.0000E+00  0.0000E+00  0.0000E+00  0.0000E+00
 averages -4.2012E+03  0.0000E+00  1.6497E+02 -4.7778E+03  4.9080E+03  0.0000E+00  0.0000E+00  0.0000E+00  0.0000E+00
           2.3044E+03  0.0000E+00  1.7410E+01  3.4821E+01  8.9916E+01  9.0011E+01  9.0007E+01  0.0000E+00  1.7347E-01
 ------------------------------------------------------------------------------------------------------------------------
      430 -4.2026E+03  3.0255E+03 -4.2866E+03  7.6172E+02 -5.0634E+03  0.0000E+00  0.0000E+00  0.0000E+00  0.0000E+00
 860.000f -4.1879E+03  0.0000E+00  1.2421E+02 -4.8061E+03  4.9003E+03  0.0000E+00  0.0000E+00  0.0000E+00  0.0000E+00
   7.416m  2.3124E+03  0.0000E+00  1.5030E+01  3.0060E+01  9.0089E+01  9.0228E+01  9.0080E+01  0.0000E+00  1.0018E+01

  rolling -4.2023E+03  2.9830E+03 -4.2852E+03  7.5103E+02 -5.0536E+03  0.0000E+00  0.0000E+00  0.0000E+00  0.0000E+00
 averages -4.2019E+03  0.0000E+00  1.6462E+02 -4.7629E+03  4.8928E+03  0.0000E+00  0.0000E+00  0.0000E+00  0.0000E+00
           2.3087E+03  0.0000E+00  1.7357E+01  3.4714E+01  8.9929E+01  8.9989E+01  9.0032E+01  0.0000E+00  2.7183E-01
 ------------------------------------------------------------------------------------------------------------------------
      440 -4.2024E+03  2.9816E+03 -4.2852E+03  7.5175E+02 -5.0531E+03  0.0000E+00  0.0000E+00  0.0000E+00  0.0000E+00
 880.000f -4.2021E+03  0.0000E+00  1.6488E+02 -4.7538E+03  4.8864E+03  0.0000E+00  0.0000E+00  0.0000E+00  0.0000E+00
   7.610m  2.3284E+03  0.0000E+00  1.6145E+01  3.2290E+01  8.9891E+01  8.9845E+01  8.9914E+01  0.0000E+00  1.9121E-01

  rolling -4.2024E+03  2.9828E+03 -4.2853E+03  7.5092E+02 -5.0535E+03  0.0000E+00  0.0000E+00  0.0000E+00  0.0000E+00
 averages -4.2022E+03  0.0000E+00  1.6510E+02 -4.7597E+03  4.8903E+03  0.0000E+00  0.0000E+00  0.0000E+00  0.0000E+00
           2.3126E+03  0.0000E+00  1.7234E+01  3.4469E+01  8.9930E+01  8.9977E+01  9.0022E+01  0.0000E+00  1.5997E-01
 ------------------------------------------------------------------------------------------------------------------------
      450 -4.1986E+03  2.8194E+03 -4.2770E+03  7.5492E+02 -5.0487E+03  0.0000E+00  0.0000E+00  0.0000E+00  0.0000E+00
 900.000f -4.2095E+03  0.0000E+00  1.8947E+02 -4.7669E+03  4.9228E+03  0.0000E+00  0.0000E+00  0.0000E+00  0.0000E+00
   7.770m  2.3251E+03  0.0000E+00  1.6767E+01  3.3534E+01  9.0484E+01  9.0042E+01  9.0018E+01  0.0000E+00 -7.4262E+00

  rolling -4.2024E+03  2.9709E+03 -4.2849E+03  7.5113E+02 -5.0532E+03  0.0000E+00  0.0000E+00  0.0000E+00  0.0000E+00
 averages -4.2024E+03  0.0000E+00  1.6517E+02 -4.7593E+03  4.8902E+03  0.0000E+00  0.0000E+00  0.0000E+00  0.0000E+00
           2.3148E+03  0.0000E+00  1.7109E+01  3.4218E+01  8.9969E+01  8.9990E+01  9.0037E+01  0.0000E+00 -7.5986E-03
 ------------------------------------------------------------------------------------------------------------------------
      460 -4.1908E+03  3.0879E+03 -4.2766E+03  7.8152E+02 -5.0733E+03  0.0000E+00  0.0000E+00  0.0000E+00  0.0000E+00
 920.000f -4.1933E+03  0.0000E+00  1.7925E+02 -4.9131E+03  5.0619E+03  0.0000E+00  0.0000E+00  0.0000E+00  0.0000E+00
   7.957m  2.2832E+03  0.0000E+00  1.5190E+01  3.0381E+01  9.0253E+01  8.9936E+01  8.9861E+01  0.0000E+00 -1.7571E+00

  rolling -4.2015E+03  2.9661E+03 -4.2840E+03  7.5349E+02 -5.0545E+03  0.0000E+00  0.0000E+00  0.0000E+00  0.0000E+00
 averages -4.2018E+03  0.0000E+00  1.6562E+02 -4.7710E+03  4.9024E+03  0.0000E+00  0.0000E+00  0.0000E+00  0.0000E+00
           2.3131E+03  0.0000E+00  1.7091E+01  3.4181E+01  8.9967E+01  8.9986E+01  9.0040E+01  0.0000E+00 -1.7099E-01
 ------------------------------------------------------------------------------------------------------------------------
      470 -4.2003E+03  3.0529E+03 -4.2851E+03  7.6919E+02 -5.0713E+03  0.0000E+00  0.0000E+00  0.0000E+00  0.0000E+00
 940.000f -4.1844E+03  0.0000E+00  1.2201E+02 -4.8607E+03  4.9487E+03  0.0000E+00  0.0000E+00  0.0000E+00  0.0000E+00
   8.145m  2.2829E+03  0.0000E+00  1.6981E+01  3.3963E+01  9.0301E+01  9.0511E+01  8.9637E+01  0.0000E+00  1.1008E+01

  rolling -4.2007E+03  2.9783E+03 -4.2834E+03  7.5618E+02 -5.0567E+03  0.0000E+00  0.0000E+00  0.0000E+00  0.0000E+00
 averages -4.2007E+03  0.0000E+00  1.6548E+02 -4.7855E+03  4.9169E+03  0.0000E+00  0.0000E+00  0.0000E+00  0.0000E+00
           2.3094E+03  0.0000E+00  1.7046E+01  3.4091E+01  8.9994E+01  8.9971E+01  9.0047E+01  0.0000E+00  1.8481E-02
 ------------------------------------------------------------------------------------------------------------------------
 ------------------------------------------------------------------------------------------------------------------------

     step     eng_tot    temp_tot     eng_cfg     eng_vdw     eng_cou     eng_bnd     eng_ang     eng_dih     eng_tet
 time          eng_pv    temp_rot     vir_cfg     vir_vdw     vir_cou     vir_bnd     vir_ang     vir_con     vir_tet
 cpu time      volume    temp_shl     eng_shl     vir_shl       alpha        beta       gamma     vir_pmf       press

 ------------------------------------------------------------------------------------------------------------------------
      480 -4.2019E+03  2.8710E+03 -4.2817E+03  7.5546E+02 -5.0542E+03  0.0000E+00  0.0000E+00  0.0000E+00  0.0000E+00
 960.000f -4.2007E+03  0.0000E+00  1.5586E+02 -4.7685E+03  4.8902E+03  0.0000E+00  0.0000E+00  0.0000E+00  0.0000E+00
   8.334m  2.3231E+03  0.0000E+00  1.7089E+01  3.4177E+01  8.9707E+01  9.0173E+01  8.9772E+01  0.0000E+00  8.4378E-01

  rolling -4.2004E+03  2.9741E+03 -4.2830E+03  7.5735E+02 -5.0573E+03  0.0000E+00  0.0000E+00  0.0000E+00  0.0000E+00
 averages -4.2003E+03  0.0000E+00  1.6503E+02 -4.7897E+03  4.9209E+03  0.0000E+00  0.0000E+00  0.0000E+00  0.0000E+00
           2.3096E+03  0.0000E+00  1.6925E+01  3.3849E+01  9.0008E+01  8.9995E+01  9.0022E+01  0.0000E+00  6.9374E-02
 ------------------------------------------------------------------------------------------------------------------------
      490 -4.2014E+03  2.9888E+03 -4.2845E+03  7.5316E+02 -5.0535E+03  0.0000E+00  0.0000E+00  0.0000E+00  0.0000E+00
 980.000f -4.2006E+03  0.0000E+00  1.6378E+02 -4.7504E+03  4.8824E+03  0.0000E+00  0.0000E+00  0.0000E+00  0.0000E+00
   8.516m  2.3504E+03  0.0000E+00  1.5896E+01  3.1793E+01  8.9830E+01  9.0591E+01  8.9758E+01  0.0000E+00  5.2573E-01

  rolling -4.2002E+03  2.9751E+03 -4.2829E+03  7.5787E+02 -5.0576E+03  0.0000E+00  0.0000E+00  0.0000E+00  0.0000E+00
 averages -4.1999E+03  0.0000E+00  1.6443E+02 -4.7903E+03  4.9210E+03  0.0000E+00  0.0000E+00  0.0000E+00  0.0000E+00
           2.3116E+03  0.0000E+00  1.6814E+01  3.3629E+01  8.9999E+01  9.0095E+01  8.9977E+01  0.0000E+00  2.1706E-01
 ------------------------------------------------------------------------------------------------------------------------
      500 -4.2012E+03  2.9303E+03 -4.2826E+03  7.5342E+02 -5.0500E+03  0.0000E+00  0.0000E+00  0.0000E+00  0.0000E+00
   1.000p -4.2009E+03  0.0000E+00  1.6188E+02 -4.7442E+03  4.8781E+03  0.0000E+00  0.0000E+00  0.0000E+00  0.0000E+00
   8.689m  2.3630E+03  0.0000E+00  1.3976E+01  2.7952E+01  8.9751E+01  8.9601E+01  8.9509E+01  0.0000E+00  2.2201E-01

  rolling -4.2001E+03  2.9862E+03 -4.2831E+03  7.5801E+02 -5.0575E+03  0.0000E+00  0.0000E+00  0.0000E+00  0.0000E+00
 averages -4.1998E+03  0.0000E+00  1.6490E+02 -4.7883E+03  4.9203E+03  0.0000E+00  0.0000E+00  0.0000E+00  0.0000E+00
           2.3163E+03  0.0000E+00  1.6417E+01  3.2833E+01  9.0023E+01  9.0094E+01  8.9900E+01  0.0000E+00  2.4977E-01
 ------------------------------------------------------------------------------------------------------------------------
      510 -4.2013E+03  2.9530E+03 -4.2834E+03  7.5331E+02 -5.0529E+03  0.0000E+00  0.0000E+00  0.0000E+00  0.0000E+00
   1.020p -4.2024E+03  0.0000E+00  1.6747E+02 -4.7525E+03  4.8875E+03  0.0000E+00  0.0000E+00  0.0000E+00  0.0000E+00
   8.859m  2.3470E+03  0.0000E+00  1.6252E+01  3.2504E+01  8.9585E+01  8.9949E+01  8.9583E+01  0.0000E+00 -7.5037E-01

  rolling -4.2000E+03  2.9691E+03 -4.2825E+03  7.5852E+02 -5.0573E+03  0.0000E+00  0.0000E+00  0.0000E+00  0.0000E+00
 averages -4.1997E+03  0.0000E+00  1.6426E+02 -4.7883E+03  4.9201E+03  0.0000E+00  0.0000E+00  0.0000E+00  0.0000E+00
           2.3204E+03  0.0000E+00  1.6221E+01  3.2441E+01  9.0018E+01  9.0026E+01  8.9882E+01  0.0000E+00  1.8106E-01
 ------------------------------------------------------------------------------------------------------------------------
      520 -4.2004E+03  2.7885E+03 -4.2779E+03  7.5681E+02 -5.0510E+03  0.0000E+00  0.0000E+00  0.0000E+00  0.0000E+00
   1.040p -4.2000E+03  0.0000E+00  1.5379E+02 -4.7663E+03  4.8875E+03  0.0000E+00  0.0000E+00  0.0000E+00  0.0000E+00
   9.003m  2.3450E+03  0.0000E+00  1.6286E+01  3.2573E+01  8.9487E+01  8.9856E+01  9.0118E+01  0.0000E+00  2.6888E-01

  rolling -4.1998E+03  2.9586E+03 -4.2820E+03  7.5899E+02 -5.0571E+03  0.0000E+00  0.0000E+00  0.0000E+00  0.0000E+00
 averages -4.1995E+03  0.0000E+00  1.6352E+02 -4.7887E+03  4.9200E+03  0.0000E+00  0.0000E+00  0.0000E+00  0.0000E+00
           2.3242E+03  0.0000E+00  1.6095E+01  3.2189E+01  8.9937E+01  9.0019E+01  8.9860E+01  0.0000E+00  2.1601E-01
 ------------------------------------------------------------------------------------------------------------------------
      530 -4.2007E+03  3.1995E+03 -4.2896E+03  7.4620E+02 -5.0499E+03  0.0000E+00  0.0000E+00  0.0000E+00  0.0000E+00
   1.060p -4.2022E+03  0.0000E+00  1.8244E+02 -4.7300E+03  4.8843E+03  0.0000E+00  0.0000E+00  0.0000E+00  0.0000E+00
   9.175m  2.3365E+03  0.0000E+00  1.4056E+01  2.8111E+01  9.0324E+01  8.9582E+01  9.0032E+01  0.0000E+00 -1.0388E+00

  rolling -4.1996E+03  2.9630E+03 -4.2819E+03  7.5864E+02 -5.0565E+03  0.0000E+00  0.0000E+00  0.0000E+00  0.0000E+00
 averages -4.1995E+03  0.0000E+00  1.6461E+02 -4.7861E+03  4.9189E+03  0.0000E+00  0.0000E+00  0.0000E+00  0.0000E+00
           2.3270E+03  0.0000E+00  1.5901E+01  3.1802E+01  8.9919E+01  8.9987E+01  8.9840E+01  0.0000E+00  2.4692E-02
 ------------------------------------------------------------------------------------------------------------------------
      540 -4.2013E+03  2.8209E+03 -4.2797E+03  7.5607E+02 -5.0551E+03  0.0000E+00  0.0000E+00  0.0000E+00  0.0000E+00
   1.080p -4.2020E+03  0.0000E+00  1.5866E+02 -4.7726E+03  4.8927E+03  0.0000E+00  0.0000E+00  0.0000E+00  0.0000E+00
   9.351m  2.3197E+03  0.0000E+00  1.9311E+01  3.8622E+01  8.9999E+01  9.0000E+01  9.0049E+01  0.0000E+00 -4.2484E-01

  rolling -4.1996E+03  2.9649E+03 -4.2820E+03  7.5802E+02 -5.0560E+03  0.0000E+00  0.0000E+00  0.0000E+00  0.0000E+00
 averages -4.1997E+03  0.0000E+00  1.6495E+02 -4.7833E+03  4.9163E+03  0.0000E+00  0.0000E+00  0.0000E+00  0.0000E+00
           2.3274E+03  0.0000E+00  1.5989E+01  3.1979E+01  8.9959E+01  8.9965E+01  8.9848E+01  0.0000E+00 -3.1259E-02
 ------------------------------------------------------------------------------------------------------------------------
      550 -4.2012E+03  3.0804E+03 -4.2868E+03  7.4869E+02 -5.0519E+03  0.0000E+00  0.0000E+00  0.0000E+00  0.0000E+00
   1.100p -4.2021E+03  0.0000E+00  1.7385E+02 -4.7480E+03  4.8891E+03  0.0000E+00  0.0000E+00  0.0000E+00  0.0000E+00
   9.522m  2.3165E+03  0.0000E+00  1.6373E+01  3.2747E+01  9.0050E+01  9.0345E+01  8.9496E+01  0.0000E+00 -5.9948E-01

  rolling -4.1996E+03  2.9690E+03 -4.2821E+03  7.5814E+02 -5.0564E+03  0.0000E+00  0.0000E+00  0.0000E+00  0.0000E+00
 averages -4.1995E+03  0.0000E+00  1.6485E+02 -4.7841E+03  4.9166E+03  0.0000E+00  0.0000E+00  0.0000E+00  0.0000E+00
           2.3265E+03  0.0000E+00  1.6149E+01  3.2299E+01  8.9921E+01  8.9997E+01  8.9832E+01  0.0000E+00  4.3319E-02
 ------------------------------------------------------------------------------------------------------------------------
 ------------------------------------------------------------------------------------------------------------------------

     step     eng_tot    temp_tot     eng_cfg     eng_vdw     eng_cou     eng_bnd     eng_ang     eng_dih     eng_tet
 time          eng_pv    temp_rot     vir_cfg     vir_vdw     vir_cou     vir_bnd     vir_ang     vir_con     vir_tet
 cpu time      volume    temp_shl     eng_shl     vir_shl       alpha        beta       gamma     vir_pmf       press

 ------------------------------------------------------------------------------------------------------------------------
      560 -4.2031E+03  2.9271E+03 -4.2845E+03  7.5062E+02 -5.0553E+03  0.0000E+00  0.0000E+00  0.0000E+00  0.0000E+00
   1.120p -4.2040E+03  0.0000E+00  1.6539E+02 -4.7685E+03  4.8935E+03  0.0000E+00  0.0000E+00  0.0000E+00  0.0000E+00
   9.706m  2.2993E+03  0.0000E+00  2.0231E+01  4.0461E+01  9.0167E+01  8.9985E+01  9.0145E+01  0.0000E+00 -6.1931E-01

  rolling -4.2004E+03  2.9791E+03 -4.2832E+03  7.5554E+02 -5.0551E+03  0.0000E+00  0.0000E+00  0.0000E+00  0.0000E+00
 averages -4.2003E+03  0.0000E+00  1.6516E+02 -4.7725E+03  4.9050E+03  0.0000E+00  0.0000E+00  0.0000E+00  0.0000E+00
           2.3273E+03  0.0000E+00  1.6344E+01  3.2688E+01  8.9908E+01  9.0011E+01  8.9819E+01  0.0000E+00  1.0046E-01
 ------------------------------------------------------------------------------------------------------------------------
      570 -4.1933E+03  3.0426E+03 -4.2779E+03  7.7723E+02 -5.0728E+03  0.0000E+00  0.0000E+00  0.0000E+00  0.0000E+00
   1.140p -4.1983E+03  0.0000E+00  1.8405E+02 -4.9121E+03  5.0608E+03  0.0000E+00  0.0000E+00  0.0000E+00  0.0000E+00
   9.886m  2.2586E+03  0.0000E+00  1.7684E+01  3.5369E+01  8.9978E+01  8.9775E+01  8.9506E+01  0.0000E+00 -3.4865E+00

  rolling -4.2011E+03  2.9620E+03 -4.2834E+03  7.5369E+02 -5.0538E+03  0.0000E+00  0.0000E+00  0.0000E+00  0.0000E+00
 averages -4.2014E+03  0.0000E+00  1.6573E+02 -4.7634E+03  4.8957E+03  0.0000E+00  0.0000E+00  0.0000E+00  0.0000E+00
           2.3284E+03  0.0000E+00  1.6709E+01  3.3418E+01  8.9914E+01  9.0009E+01  8.9838E+01  0.0000E+00 -2.5307E-01
 ------------------------------------------------------------------------------------------------------------------------
      580 -4.1936E+03  2.9447E+03 -4.2754E+03  7.8061E+02 -5.0751E+03  0.0000E+00  0.0000E+00  0.0000E+00  0.0000E+00
   1.160p -4.1942E+03  0.0000E+00  1.6546E+02 -4.9369E+03  5.0644E+03  0.0000E+00  0.0000E+00  0.0000E+00  0.0000E+00
  10.067m  2.2486E+03  0.0000E+00  1.8991E+01  3.7981E+01  9.0264E+01  8.9876E+01  8.9922E+01  0.0000E+00 -4.1914E-01

  rolling -4.2007E+03  2.9670E+03 -4.2832E+03  7.5487E+02 -5.0548E+03  0.0000E+00  0.0000E+00  0.0000E+00  0.0000E+00
 averages -4.2012E+03  0.0000E+00  1.6650E+02 -4.7718E+03  4.9047E+03  0.0000E+00  0.0000E+00  0.0000E+00  0.0000E+00
           2.3242E+03  0.0000E+00  1.6817E+01  3.3634E+01  8.9935E+01  9.0001E+01  8.9841E+01  0.0000E+00 -3.6403E-01
 ------------------------------------------------------------------------------------------------------------------------
      590 -4.1928E+03  2.8058E+03 -4.2708E+03  7.7724E+02 -5.0661E+03  0.0000E+00  0.0000E+00  0.0000E+00  0.0000E+00
   1.180p -4.2017E+03  0.0000E+00  1.8274E+02 -4.9098E+03  5.0562E+03  0.0000E+00  0.0000E+00  0.0000E+00  0.0000E+00
  10.245m  2.2588E+03  0.0000E+00  1.8152E+01  3.6303E+01  8.9701E+01  9.0041E+01  8.9894E+01  0.0000E+00 -6.2523E+00

  rolling -4.2002E+03  2.9567E+03 -4.2824E+03  7.5674E+02 -5.0562E+03  0.0000E+00  0.0000E+00  0.0000E+00  0.0000E+00
 averages -4.2009E+03  0.0000E+00  1.6650E+02 -4.7846E+03  4.9170E+03  0.0000E+00  0.0000E+00  0.0000E+00  0.0000E+00
           2.3169E+03  0.0000E+00  1.7092E+01  3.4184E+01  8.9959E+01  8.9961E+01  8.9849E+01  0.0000E+00 -4.9183E-01
 ------------------------------------------------------------------------------------------------------------------------
      600 -4.1938E+03  3.1681E+03 -4.2818E+03  7.7240E+02 -5.0727E+03  0.0000E+00  0.0000E+00  0.0000E+00  0.0000E+00
   1.200p -4.1961E+03  0.0000E+00  1.8305E+02 -4.9190E+03  5.0650E+03  0.0000E+00  0.0000E+00  0.0000E+00  0.0000E+00
  10.434m  2.2169E+03  0.0000E+00  1.8522E+01  3.7043E+01  9.0044E+01  8.9982E+01  9.0585E+01  0.0000E+00 -1.6562E+00

  rolling -4.1994E+03  2.9540E+03 -4.2815E+03  7.5913E+02 -5.0580E+03  0.0000E+00  0.0000E+00  0.0000E+00  0.0000E+00
 averages -4.2004E+03  0.0000E+00  1.6729E+02 -4.8027E+03  4.9351E+03  0.0000E+00  0.0000E+00  0.0000E+00  0.0000E+00
           2.3046E+03  0.0000E+00  1.7423E+01  3.4846E+01  8.9979E+01  8.9975E+01  8.9948E+01  0.0000E+00 -7.1044E-01
 ------------------------------------------------------------------------------------------------------------------------
      610 -4.1952E+03  3.2135E+03 -4.2845E+03  7.7615E+02 -5.0777E+03  0.0000E+00  0.0000E+00  0.0000E+00  0.0000E+00
   1.220p -4.1927E+03  0.0000E+00  1.7113E+02 -4.9338E+03  5.0709E+03  0.0000E+00  0.0000E+00  0.0000E+00  0.0000E+00
  10.658m  2.2156E+03  0.0000E+00  1.7035E+01  3.4070E+01  9.0116E+01  9.0300E+01  8.9808E+01  0.0000E+00  1.7809E+00

  rolling -4.1987E+03  2.9815E+03 -4.2816E+03  7.6123E+02 -5.0606E+03  0.0000E+00  0.0000E+00  0.0000E+00  0.0000E+00
 averages -4.1996E+03  0.0000E+00  1.6832E+02 -4.8209E+03  4.9538E+03  0.0000E+00  0.0000E+00  0.0000E+00  0.0000E+00
           2.2899E+03  0.0000E+00  1.7748E+01  3.5495E+01  9.0026E+01  9.0009E+01  9.0005E+01  0.0000E+00 -5.9731E-01
 ------------------------------------------------------------------------------------------------------------------------
      620 -4.2057E+03  2.9446E+03 -4.2875E+03  7.4612E+02 -5.0507E+03  0.0000E+00  0.0000E+00  0.0000E+00  0.0000E+00
   1.240p -4.2127E+03  0.0000E+00  1.8476E+02 -4.7334E+03  4.8839E+03  0.0000E+00  0.0000E+00  0.0000E+00  0.0000E+00
  10.864m  2.3045E+03  0.0000E+00  1.7118E+01  3.4236E+01  8.9690E+01  8.9995E+01  9.0049E+01  0.0000E+00 -4.8255E+00

  rolling -4.1986E+03  3.0103E+03 -4.2822E+03  7.6272E+02 -5.0627E+03  0.0000E+00  0.0000E+00  0.0000E+00  0.0000E+00
 averages -4.1989E+03  0.0000E+00  1.6833E+02 -4.8330E+03  4.9659E+03  0.0000E+00  0.0000E+00  0.0000E+00  0.0000E+00
           2.2804E+03  0.0000E+00  1.7730E+01  3.5461E+01  9.0064E+01  9.0032E+01  9.0008E+01  0.0000E+00 -2.2228E-01
 ------------------------------------------------------------------------------------------------------------------------
      630 -4.2053E+03  2.9400E+03 -4.2870E+03  7.5502E+02 -5.0599E+03  0.0000E+00  0.0000E+00  0.0000E+00  0.0000E+00
   1.260p -4.2022E+03  0.0000E+00  1.5397E+02 -4.7780E+03  4.8962E+03  0.0000E+00  0.0000E+00  0.0000E+00  0.0000E+00
  11.041m  2.3076E+03  0.0000E+00  1.7862E+01  3.5725E+01  8.9984E+01  8.9821E+01  9.0195E+01  0.0000E+00  2.1550E+00

  rolling -4.1991E+03  3.0013E+03 -4.2825E+03  7.6285E+02 -5.0634E+03  0.0000E+00  0.0000E+00  0.0000E+00  0.0000E+00
 averages -4.1992E+03  0.0000E+00  1.6723E+02 -4.8356E+03  4.9667E+03  0.0000E+00  0.0000E+00  0.0000E+00  0.0000E+00
           2.2761E+03  0.0000E+00  1.8033E+01  3.6066E+01  9.0059E+01  9.0041E+01  9.0023E+01  0.0000E+00 -8.3987E-02
 ------------------------------------------------------------------------------------------------------------------------
 ------------------------------------------------------------------------------------------------------------------------

     step     eng_tot    temp_tot     eng_cfg     eng_vdw     eng_cou     eng_bnd     eng_ang     eng_dih     eng_tet
 time          eng_pv    temp_rot     vir_cfg     vir_vdw     vir_cou     vir_bnd     vir_ang     vir_con     vir_tet
 cpu time      volume    temp_shl     eng_shl     vir_shl       alpha        beta       gamma     vir_pmf       press

 ------------------------------------------------------------------------------------------------------------------------
      640 -4.2037E+03  2.8213E+03 -4.2821E+03  7.5519E+02 -5.0528E+03  0.0000E+00  0.0000E+00  0.0000E+00  0.0000E+00
   1.280p -4.2043E+03  0.0000E+00  1.5862E+02 -4.7559E+03  4.8836E+03  0.0000E+00  0.0000E+00  0.0000E+00  0.0000E+00
  11.228m  2.3510E+03  0.0000E+00  1.5438E+01  3.0875E+01  8.9929E+01  9.0318E+01  8.9816E+01  0.0000E+00 -4.0497E-01

  rolling -4.1994E+03  2.9826E+03 -4.2823E+03  7.6356E+02 -5.0639E+03  0.0000E+00  0.0000E+00  0.0000E+00  0.0000E+00
 averages -4.1992E+03  0.0000E+00  1.6506E+02 -4.8378E+03  4.9669E+03  0.0000E+00  0.0000E+00  0.0000E+00  0.0000E+00
           2.2770E+03  0.0000E+00  1.7992E+01  3.5985E+01  9.0017E+01  9.0078E+01  9.0013E+01  0.0000E+00  1.7177E-01
 ------------------------------------------------------------------------------------------------------------------------
      650 -4.1938E+03  2.8962E+03 -4.2743E+03  7.7667E+02 -5.0684E+03  0.0000E+00  0.0000E+00  0.0000E+00  0.0000E+00
   1.300p -4.2045E+03  0.0000E+00  1.9296E+02 -4.8943E+03  5.0523E+03  0.0000E+00  0.0000E+00  0.0000E+00  0.0000E+00
  11.432m  2.2918E+03  0.0000E+00  1.7478E+01  3.4956E+01  8.9594E+01  9.0006E+01  8.9923E+01  0.0000E+00 -7.3570E+00

  rolling -4.1994E+03  2.9839E+03 -4.2823E+03  7.6412E+02 -5.0643E+03  0.0000E+00  0.0000E+00  0.0000E+00  0.0000E+00
 averages -4.1996E+03  0.0000E+00  1.6661E+02 -4.8406E+03  4.9715E+03  0.0000E+00  0.0000E+00  0.0000E+00  0.0000E+00
           2.2778E+03  0.0000E+00  1.7855E+01  3.5709E+01  9.0013E+01  9.0057E+01  9.0024E+01  0.0000E+00 -1.6166E-01
 ------------------------------------------------------------------------------------------------------------------------
      660 -4.2027E+03  2.8245E+03 -4.2812E+03  7.5352E+02 -5.0504E+03  0.0000E+00  0.0000E+00  0.0000E+00  0.0000E+00
   1.320p -4.2037E+03  0.0000E+00  1.6013E+02 -4.7583E+03  4.8871E+03  0.0000E+00  0.0000E+00  0.0000E+00  0.0000E+00
  11.614m  2.3408E+03  0.0000E+00  1.5676E+01  3.1351E+01  8.9735E+01  8.9614E+01  9.0012E+01  0.0000E+00 -7.0601E-01

  rolling -4.1993E+03  2.9561E+03 -4.2815E+03  7.6553E+02 -5.0647E+03  0.0000E+00  0.0000E+00  0.0000E+00  0.0000E+00
 averages -4.1990E+03  0.0000E+00  1.6338E+02 -4.8459E+03  4.9739E+03  0.0000E+00  0.0000E+00  0.0000E+00  0.0000E+00
           2.2797E+03  0.0000E+00  1.7684E+01  3.5368E+01  8.9996E+01  9.0000E+01  9.0029E+01  0.0000E+00  2.2411E-01
 ------------------------------------------------------------------------------------------------------------------------
      670 -4.2025E+03  2.9190E+03 -4.2836E+03  7.5426E+02 -5.0559E+03  0.0000E+00  0.0000E+00  0.0000E+00  0.0000E+00
   1.340p -4.2016E+03  0.0000E+00  1.5962E+02 -4.7682E+03  4.8919E+03  0.0000E+00  0.0000E+00  0.0000E+00  0.0000E+00
  11.797m  2.3318E+03  0.0000E+00  1.7984E+01  3.5968E+01  8.9961E+01  8.9900E+01  8.9666E+01  0.0000E+00  5.9380E-01

  rolling -4.1995E+03  2.9483E+03 -4.2815E+03  7.6522E+02 -5.0642E+03  0.0000E+00  0.0000E+00  0.0000E+00  0.0000E+00
 averages -4.1990E+03  0.0000E+00  1.6210E+02 -4.8423E+03  4.9694E+03  0.0000E+00  0.0000E+00  0.0000E+00  0.0000E+00
           2.2841E+03  0.0000E+00  1.7502E+01  3.5004E+01  8.9957E+01  8.9994E+01  9.0012E+01  0.0000E+00  4.1904E-01
 ------------------------------------------------------------------------------------------------------------------------
      680 -4.2020E+03  2.9702E+03 -4.2846E+03  7.5239E+02 -5.0545E+03  0.0000E+00  0.0000E+00  0.0000E+00  0.0000E+00
   1.360p -4.2033E+03  0.0000E+00  1.6874E+02 -4.7535E+03  4.8872E+03  0.0000E+00  0.0000E+00  0.0000E+00  0.0000E+00
  11.962m  2.3366E+03  0.0000E+00  1.7530E+01  3.5059E+01  9.0007E+01  8.9797E+01  9.0112E+01  0.0000E+00 -8.2222E-01

  rolling -4.2001E+03  2.9423E+03 -4.2819E+03  7.6340E+02 -5.0627E+03  0.0000E+00  0.0000E+00  0.0000E+00  0.0000E+00
 averages -4.1995E+03  0.0000E+00  1.6166E+02 -4.8298E+03  4.9566E+03  0.0000E+00  0.0000E+00  0.0000E+00  0.0000E+00
           2.2914E+03  0.0000E+00  1.7421E+01  3.4842E+01  8.9929E+01  8.9978E+01  9.0007E+01  0.0000E+00  4.4074E-01
 ------------------------------------------------------------------------------------------------------------------------
      690 -4.2027E+03  2.9875E+03 -4.2857E+03  7.5165E+02 -5.0546E+03  0.0000E+00  0.0000E+00  0.0000E+00  0.0000E+00
   1.380p -4.2029E+03  0.0000E+00  1.6681E+02 -4.7558E+03  4.8882E+03  0.0000E+00  0.0000E+00  0.0000E+00  0.0000E+00
  12.151m  2.3261E+03  0.0000E+00  1.7232E+01  3.4465E+01  9.0251E+01  8.9884E+01  8.9943E+01  0.0000E+00 -1.7153E-01

  rolling -4.2007E+03  2.9601E+03 -4.2830E+03  7.6124E+02 -5.0615E+03  0.0000E+00  0.0000E+00  0.0000E+00  0.0000E+00
 averages -4.2001E+03  0.0000E+00  1.6284E+02 -4.8162E+03  4.9445E+03  0.0000E+00  0.0000E+00  0.0000E+00  0.0000E+00
           2.2978E+03  0.0000E+00  1.7264E+01  3.4527E+01  8.9945E+01  8.9950E+01  9.0023E+01  0.0000E+00  3.9838E-01
 ------------------------------------------------------------------------------------------------------------------------
      700 -4.2020E+03  2.8578E+03 -4.2814E+03  7.5345E+02 -5.0523E+03  0.0000E+00  0.0000E+00  0.0000E+00  0.0000E+00
   1.400p -4.2016E+03  0.0000E+00  1.5762E+02 -4.7640E+03  4.8867E+03  0.0000E+00  0.0000E+00  0.0000E+00  0.0000E+00
  12.348m  2.3263E+03  0.0000E+00  1.7469E+01  3.4939E+01  9.0144E+01  9.0115E+01  9.0217E+01  0.0000E+00  2.7709E-01

  rolling -4.2016E+03  2.9531E+03 -4.2837E+03  7.5880E+02 -5.0597E+03  0.0000E+00  0.0000E+00  0.0000E+00  0.0000E+00
 averages -4.2008E+03  0.0000E+00  1.6174E+02 -4.7998E+03  4.9271E+03  0.0000E+00  0.0000E+00  0.0000E+00  0.0000E+00
           2.3069E+03  0.0000E+00  1.7215E+01  3.4430E+01  8.9969E+01  8.9926E+01  8.9974E+01  0.0000E+00  5.6542E-01
 ------------------------------------------------------------------------------------------------------------------------
      710 -4.2025E+03  3.0008E+03 -4.2859E+03  7.4835E+02 -5.0520E+03  0.0000E+00  0.0000E+00  0.0000E+00  0.0000E+00
   1.420p -4.2043E+03  0.0000E+00  1.7224E+02 -4.7507E+03  4.8874E+03  0.0000E+00  0.0000E+00  0.0000E+00  0.0000E+00
  12.530m  2.3115E+03  0.0000E+00  1.7786E+01  3.5572E+01  8.9939E+01  9.0091E+01  9.0102E+01  0.0000E+00 -1.2438E+00

  rolling -4.2024E+03  2.9313E+03 -4.2838E+03  7.5636E+02 -5.0572E+03  0.0000E+00  0.0000E+00  0.0000E+00  0.0000E+00
 averages -4.2017E+03  0.0000E+00  1.6103E+02 -4.7817E+03  4.9087E+03  0.0000E+00  0.0000E+00  0.0000E+00  0.0000E+00
           2.3181E+03  0.0000E+00  1.7024E+01  3.4048E+01  8.9966E+01  8.9936E+01  8.9977E+01  0.0000E+00  4.5152E-01
 ------------------------------------------------------------------------------------------------------------------------
 ------------------------------------------------------------------------------------------------------------------------

     step     eng_tot    temp_tot     eng_cfg     eng_vdw     eng_cou     eng_bnd     eng_ang     eng_dih     eng_tet
 time          eng_pv    temp_rot     vir_cfg     vir_vdw     vir_cou     vir_bnd     vir_ang     vir_con     vir_tet
 cpu time      volume    temp_shl     eng_shl     vir_shl       alpha        beta       gamma     vir_pmf       press

 ------------------------------------------------------------------------------------------------------------------------
      720 -4.2028E+03  3.1904E+03 -4.2915E+03  7.4748E+02 -5.0553E+03  0.0000E+00  0.0000E+00  0.0000E+00  0.0000E+00
   1.440p -4.2014E+03  0.0000E+00  1.7306E+02 -4.7502E+03  4.8904E+03  0.0000E+00  0.0000E+00  0.0000E+00  0.0000E+00
  12.715m  2.3112E+03  0.0000E+00  1.6410E+01  3.2820E+01  9.0107E+01  8.9802E+01  9.0010E+01  0.0000E+00  9.7348E-01

  rolling -4.2027E+03  2.9225E+03 -4.2839E+03  7.5419E+02 -5.0553E+03  0.0000E+00  0.0000E+00  0.0000E+00  0.0000E+00
 averages -4.2026E+03  0.0000E+00  1.6203E+02 -4.7692E+03  4.8968E+03  0.0000E+00  0.0000E+00  0.0000E+00  0.0000E+00
           2.3239E+03  0.0000E+00  1.7223E+01  3.4445E+01  8.9963E+01  8.9909E+01  8.9997E+01  0.0000E+00  9.6910E-02
 ------------------------------------------------------------------------------------------------------------------------
      730 -4.2025E+03  2.8401E+03 -4.2815E+03  7.5433E+02 -5.0537E+03  0.0000E+00  0.0000E+00  0.0000E+00  0.0000E+00
   1.460p -4.2024E+03  0.0000E+00  1.5739E+02 -4.7679E+03  4.8894E+03  0.0000E+00  0.0000E+00  0.0000E+00  0.0000E+00
  12.896m  2.3253E+03  0.0000E+00  1.7961E+01  3.5922E+01  9.0101E+01  9.0194E+01  8.9860E+01  0.0000E+00  1.0602E-01

  rolling -4.2024E+03  2.9339E+03 -4.2840E+03  7.5395E+02 -5.0550E+03  0.0000E+00  0.0000E+00  0.0000E+00  0.0000E+00
 averages -4.2023E+03  0.0000E+00  1.6277E+02 -4.7677E+03  4.8963E+03  0.0000E+00  0.0000E+00  0.0000E+00  0.0000E+00
           2.3260E+03  0.0000E+00  1.7061E+01  3.4123E+01  8.9999E+01  8.9933E+01  8.9965E+01  0.0000E+00  7.0994E-02
 ------------------------------------------------------------------------------------------------------------------------
      740 -4.1987E+03  2.8127E+03 -4.2769E+03  7.5602E+02 -5.0517E+03  0.0000E+00  0.0000E+00  0.0000E+00  0.0000E+00
   1.480p -4.2106E+03  0.0000E+00  1.9192E+02 -4.7732E+03  4.9276E+03  0.0000E+00  0.0000E+00  0.0000E+00  0.0000E+00
  13.068m  2.3199E+03  0.0000E+00  1.8727E+01  3.7454E+01  8.9793E+01  8.9678E+01  8.9842E+01  0.0000E+00 -8.0838E+00

  rolling -4.2022E+03  2.9326E+03 -4.2837E+03  7.5373E+02 -5.0547E+03  0.0000E+00  0.0000E+00  0.0000E+00  0.0000E+00
 averages -4.2025E+03  0.0000E+00  1.6398E+02 -4.7674E+03  4.8968E+03  0.0000E+00  0.0000E+00  0.0000E+00  0.0000E+00
           2.3248E+03  0.0000E+00  1.7284E+01  3.4568E+01  9.0008E+01  8.9918E+01  8.9950E+01  0.0000E+00 -2.1828E-01
 ------------------------------------------------------------------------------------------------------------------------
      750 -4.2019E+03  3.1458E+03 -4.2894E+03  7.5094E+02 -5.0577E+03  0.0000E+00  0.0000E+00  0.0000E+00  0.0000E+00
   1.500p -4.2010E+03  0.0000E+00  1.7213E+02 -4.7532E+03  4.8905E+03  0.0000E+00  0.0000E+00  0.0000E+00  0.0000E+00
  13.255m  2.3241E+03  0.0000E+00  1.7422E+01  3.4843E+01  9.0065E+01  8.9945E+01  9.0049E+01  0.0000E+00  6.1641E-01

  rolling -4.2023E+03  2.9398E+03 -4.2840E+03  7.5320E+02 -5.0546E+03  0.0000E+00  0.0000E+00  0.0000E+00  0.0000E+00
 averages -4.2019E+03  0.0000E+00  1.6236E+02 -4.7649E+03  4.8923E+03  0.0000E+00  0.0000E+00  0.0000E+00  0.0000E+00
           2.3241E+03  0.0000E+00  1.7451E+01  3.4903E+01  9.0019E+01  8.9891E+01  8.9979E+01  0.0000E+00  2.3965E-01
 ------------------------------------------------------------------------------------------------------------------------
      760 -4.2024E+03  3.0316E+03 -4.2867E+03  7.4854E+02 -5.0546E+03  0.0000E+00  0.0000E+00  0.0000E+00  0.0000E+00
   1.520p -4.2051E+03  0.0000E+00  1.7637E+02 -4.7515E+03  4.8891E+03  0.0000E+00  0.0000E+00  0.0000E+00  0.0000E+00
  13.419m  2.3100E+03  0.0000E+00  1.9358E+01  3.8716E+01  8.9945E+01  8.9869E+01  8.9981E+01  0.0000E+00 -1.7959E+00

  rolling -4.2023E+03  2.9649E+03 -4.2847E+03  7.5203E+02 -5.0544E+03  0.0000E+00  0.0000E+00  0.0000E+00  0.0000E+00
 averages -4.2025E+03  0.0000E+00  1.6548E+02 -4.7595E+03  4.8896E+03  0.0000E+00  0.0000E+00  0.0000E+00  0.0000E+00
           2.3237E+03  0.0000E+00  1.7686E+01  3.5373E+01  9.0023E+01  8.9913E+01  8.9970E+01  0.0000E+00 -1.5528E-01
 ------------------------------------------------------------------------------------------------------------------------
      770 -4.2006E+03  2.9459E+03 -4.2825E+03  7.6185E+02 -5.0618E+03  0.0000E+00  0.0000E+00  0.0000E+00  0.0000E+00
   1.540p -4.1959E+03  0.0000E+00  1.4965E+02 -4.8252E+03  4.9398E+03  0.0000E+00  0.0000E+00  0.0000E+00  0.0000E+00
  13.595m  2.2842E+03  0.0000E+00  1.7501E+01  3.5003E+01  8.9983E+01  8.9715E+01  8.9720E+01  0.0000E+00  3.2507E+00

  rolling -4.2023E+03  2.9787E+03 -4.2851E+03  7.5168E+02 -5.0545E+03  0.0000E+00  0.0000E+00  0.0000E+00  0.0000E+00
 averages -4.2026E+03  0.0000E+00  1.6645E+02 -4.7595E+03  4.8905E+03  0.0000E+00  0.0000E+00  0.0000E+00  0.0000E+00
           2.3200E+03  0.0000E+00  1.7737E+01  3.5473E+01  9.0021E+01  8.9944E+01  9.0006E+01  0.0000E+00 -1.9975E-01
 ------------------------------------------------------------------------------------------------------------------------
      780 -4.1924E+03  2.9953E+03 -4.2757E+03  7.8175E+02 -5.0766E+03  0.0000E+00  0.0000E+00  0.0000E+00  0.0000E+00
   1.560p -4.1949E+03  0.0000E+00  1.7394E+02 -4.9305E+03  5.0660E+03  0.0000E+00  0.0000E+00  0.0000E+00  0.0000E+00
  13.764m  2.2596E+03  0.0000E+00  1.9189E+01  3.8378E+01  9.0134E+01  9.0324E+01  9.0106E+01  0.0000E+00 -1.7374E+00

  rolling -4.2014E+03  2.9800E+03 -4.2842E+03  7.5408E+02 -5.0561E+03  0.0000E+00  0.0000E+00  0.0000E+00  0.0000E+00
 averages -4.2020E+03  0.0000E+00  1.6728E+02 -4.7740E+03  4.9058E+03  0.0000E+00  0.0000E+00  0.0000E+00  0.0000E+00
           2.3135E+03  0.0000E+00  1.7766E+01  3.5532E+01  9.0038E+01  8.9964E+01  9.0023E+01  0.0000E+00 -3.7535E-01
 ------------------------------------------------------------------------------------------------------------------------
      790 -4.2002E+03  2.9898E+03 -4.2833E+03  7.6006E+02 -5.0609E+03  0.0000E+00  0.0000E+00  0.0000E+00  0.0000E+00
   1.580p -4.1965E+03  0.0000E+00  1.5519E+02 -4.8283E+03  4.9483E+03  0.0000E+00  0.0000E+00  0.0000E+00  0.0000E+00
  13.935m  2.2636E+03  0.0000E+00  1.7572E+01  3.5144E+01  8.9649E+01  8.9834E+01  8.9463E+01  0.0000E+00  2.5589E+00

  rolling -4.2007E+03  2.9778E+03 -4.2835E+03  7.5646E+02 -5.0579E+03  0.0000E+00  0.0000E+00  0.0000E+00  0.0000E+00
 averages -4.2011E+03  0.0000E+00  1.6669E+02 -4.7894E+03  4.9202E+03  0.0000E+00  0.0000E+00  0.0000E+00  0.0000E+00
           2.3055E+03  0.0000E+00  1.7946E+01  3.5892E+01  9.0000E+01  9.0004E+01  9.0015E+01  0.0000E+00 -2.6662E-01
 ------------------------------------------------------------------------------------------------------------------------
 ------------------------------------------------------------------------------------------------------------------------

     step     eng_tot    temp_tot     eng_cfg     eng_vdw     eng_cou     eng_bnd     eng_ang     eng_dih     eng_tet
 time          eng_pv    temp_rot     vir_cfg     vir_vdw     vir_cou     vir_bnd     vir_ang     vir_con     vir_tet
 cpu time      volume    temp_shl     eng_shl     vir_shl       alpha        beta       gamma     vir_pmf       press

 ------------------------------------------------------------------------------------------------------------------------
      800 -4.2031E+03  2.9917E+03 -4.2863E+03  7.5233E+02 -5.0567E+03  0.0000E+00  0.0000E+00  0.0000E+00  0.0000E+00
   1.600p -4.2013E+03  0.0000E+00  1.6086E+02 -4.7683E+03  4.8930E+03  0.0000E+00  0.0000E+00  0.0000E+00  0.0000E+00
  14.101m  2.3012E+03  0.0000E+00  1.8097E+01  3.6194E+01  9.0194E+01  8.9933E+01  8.9850E+01  0.0000E+00  1.2429E+00

  rolling -4.2007E+03  2.9939E+03 -4.2839E+03  7.5646E+02 -5.0583E+03  0.0000E+00  0.0000E+00  0.0000E+00  0.0000E+00
 averages -4.2009E+03  0.0000E+00  1.6686E+02 -4.7913E+03  4.9224E+03  0.0000E+00  0.0000E+00  0.0000E+00  0.0000E+00
           2.3015E+03  0.0000E+00  1.7892E+01  3.5785E+01  8.9985E+01  8.9986E+01  9.0008E+01  0.0000E+00 -9.8681E-02
[...]
    3.4922  1.057009E+00  1.083750E+01
    3.5391  7.953475E-01  1.111227E+01
    3.5859  6.624353E-01  1.134722E+01
    3.6328  5.570589E-01  1.155000E+01
    3.6797  4.134158E-01  1.170440E+01
    3.7266  3.613829E-01  1.184282E+01
    3.7734  3.265268E-01  1.197106E+01
    3.8203  3.323637E-01  1.210486E+01
    3.8672  3.423128E-01  1.224606E+01
    3.9141  3.664835E-01  1.240093E+01
    3.9609  3.990495E-01  1.257361E+01
    4.0078  4.545572E-01  1.277500E+01
    4.0547  4.757571E-01  1.299074E+01
    4.1016  4.983691E-01  1.322199E+01
    4.1484  5.359361E-01  1.347639E+01
    4.1953  5.798150E-01  1.375787E+01
    4.2422  5.736011E-01  1.404259E+01
    4.2891  5.848547E-01  1.433935E+01
    4.3359  5.950438E-01  1.464792E+01
    4.3828  5.705875E-01  1.495023E+01
    4.4297  5.889423E-01  1.526898E+01
    4.4766  5.544772E-01  1.557546E+01
    4.5234  5.405842E-01  1.588056E+01
    4.5703  5.624986E-01  1.620463E+01
    4.6172  5.267280E-01  1.651435E+01
    4.6641  5.161938E-01  1.682407E+01
    4.7109  5.400065E-01  1.715463E+01
    4.7578  5.768733E-01  1.751481E+01
    4.8047  6.063890E-01  1.790093E+01
    4.8516  6.781611E-01  1.834120E+01
    4.8984  7.624775E-01  1.884583E+01
    4.9453  9.001121E-01  1.945301E+01
    4.9922  1.020007E+00  2.015417E+01
    5.0391  1.152493E+00  2.096134E+01
    5.0859  1.238739E+00  2.184514E+01
    5.1328  1.386640E+00  2.285278E+01
    5.1797  1.526194E+00  2.398218E+01
    5.2266  1.652246E+00  2.522708E+01
    5.2734  1.742208E+00  2.656343E+01
    5.3203  1.828165E+00  2.799074E+01
    5.3672  1.778892E+00  2.940417E+01
    5.4141  1.792028E+00  3.085301E+01
    5.4609  1.746762E+00  3.228981E+01
    5.5078  1.648548E+00  3.366921E+01
    5.5547  1.526458E+00  3.496829E+01
    5.6016  1.448594E+00  3.622199E+01
    5.6484  1.288920E+00  3.735625E+01
    5.6953  1.196122E+00  3.842639E+01
    5.7422  1.102860E+00  3.942940E+01
    5.7891  1.054521E+00  4.040417E+01
    5.8359  9.518974E-01  4.129838E+01
    5.8828  8.945927E-01  4.215231E+01
    5.9297  8.626037E-01  4.298889E+01
    5.9766  8.517102E-01  4.382801E+01

g(r)  :Mg      O_      

        r      g(r)         n(r)

    1.2422  0.000000E+00  0.000000E+00
    1.2891  0.000000E+00  0.000000E+00
    1.3359  2.350943E-03  1.157407E-04
    1.3828  2.194274E-02  1.273148E-03
    1.4297  2.463310E-02  2.662037E-03
    1.4766  6.543315E-02  6.597222E-03
    1.5234  1.699430E-01  1.747685E-02
    1.5703  2.756574E-01  3.622685E-02
    1.6172  4.636665E-01  6.967593E-02
    1.6641  8.258241E-01  1.327546E-01
    1.7109  1.065007E+00  2.187500E-01
    1.7578  1.413640E+00  3.392361E-01
    1.8047  1.873247E+00  5.075231E-01
    1.8516  2.316913E+00  7.266204E-01
    1.8984  2.552025E+00  9.803241E-01
    1.9453  2.866288E+00  1.279514E+00
    1.9922  2.998367E+00  1.607755E+00
    2.0391  2.986234E+00  1.950231E+00
    2.0859  2.952863E+00  2.304630E+00
    2.1328  2.779299E+00  2.653356E+00
    2.1797  2.540053E+00  2.986227E+00
    2.2266  2.468088E+00  3.323727E+00
    2.2734  2.211489E+00  3.639005E+00
    2.3203  1.934430E+00  3.926273E+00
    2.3672  1.717052E+00  4.191667E+00
    2.4141  1.449413E+00  4.424653E+00
    2.4609  1.293567E+00  4.640741E+00
    2.5078  1.147585E+00  4.839815E+00
    2.5547  9.155483E-01  5.004630E+00
    2.6016  8.171356E-01  5.157176E+00
    2.6484  7.100991E-01  5.294560E+00
    2.6953  5.770259E-01  5.410185E+00
    2.7422  5.011070E-01  5.514120E+00
    2.7891  4.083459E-01  5.601736E+00
    2.8359  3.365236E-01  5.676389E+00
    2.8828  3.297083E-01  5.751968E+00
    2.9297  2.586204E-01  5.813194E+00
    2.9766  2.221227E-01  5.867477E+00
    3.0234  2.327321E-01  5.926157E+00
    3.0703  2.323571E-01  5.986574E+00
    3.1172  2.198076E-01  6.045486E+00
    3.1641  2.523234E-01  6.115162E+00
    3.2109  2.739067E-01  6.193056E+00
    3.2578  3.408055E-01  6.292824E+00
    3.3047  3.961408E-01  6.412153E+00
    3.3516  4.654525E-01  6.556366E+00
    3.3984  5.587916E-01  6.734375E+00
    3.4453  6.656492E-01  6.952315E+00
    3.4922  7.349514E-01  7.199537E+00
    3.5391  8.492864E-01  7.492940E+00
    3.5859  9.427465E-01  7.827315E+00
    3.6328  1.024454E+00  8.200231E+00
    3.6797  1.101099E+00  8.611458E+00
    3.7266  1.148207E+00  9.051273E+00
    3.7734  1.150801E+00  9.503241E+00
    3.8203  1.151198E+00  9.966667E+00
    3.8672  1.114481E+00  1.042639E+01
    3.9141  1.123554E+00  1.090116E+01
    3.9609  1.064489E+00  1.136181E+01
    4.0078  1.004206E+00  1.180671E+01
    4.0547  8.805591E-01  1.220602E+01
    4.1016  8.585518E-01  1.260440E+01
    4.1484  8.129258E-01  1.299028E+01
    4.1953  7.905701E-01  1.337407E+01
    4.2422  7.435829E-01  1.374317E+01
    4.2891  7.833038E-01  1.414063E+01
    4.3359  8.300704E-01  1.457106E+01
    4.3828  9.373626E-01  1.506771E+01
    4.4297  1.008516E+00  1.561354E+01
    4.4766  1.121728E+00  1.623356E+01
    4.5234  1.302857E+00  1.696887E+01
    4.5703  1.408858E+00  1.778056E+01
    4.6172  1.560304E+00  1.869803E+01
    4.6641  1.666635E+00  1.969803E+01
    4.7109  1.778467E+00  2.078669E+01
    4.7578  1.816447E+00  2.192083E+01
    4.8047  1.855340E+00  2.310220E+01
    4.8516  1.889367E+00  2.432882E+01
    4.8984  1.897974E+00  2.558495E+01
    4.9453  1.843806E+00  2.682870E+01
    4.9922  1.781393E+00  2.805324E+01
    5.0391  1.671065E+00  2.922361E+01
    5.0859  1.549559E+00  3.032917E+01
    5.1328  1.410850E+00  3.135440E+01
    5.1797  1.297218E+00  3.231435E+01
    5.2266  1.137340E+00  3.317130E+01
    5.2734  1.008266E+00  3.394468E+01
    5.3203  8.703502E-01  3.462419E+01
    5.3672  7.745142E-01  3.523958E+01
    5.4141  6.414824E-01  3.575822E+01
    5.4609  5.355385E-01  3.619873E+01
    5.5078  4.521817E-01  3.657708E+01
    5.5547  3.820225E-01  3.690220E+01
    5.6016  3.264419E-01  3.718472E+01
    5.6484  2.675167E-01  3.742014E+01
    5.6953  2.301428E-01  3.762604E+01
    5.7422  2.172378E-01  3.782361E+01
    5.7891  2.086004E-01  3.801644E+01
    5.8359  2.223887E-01  3.822535E+01
    5.8828  2.445640E-01  3.845880E+01
    5.9297  2.804536E-01  3.873079E+01
    5.9766  3.331656E-01  3.905903E+01

g(r)  :Mg      O_S     

        r      g(r)         n(r)

    1.4766  0.000000E+00  0.000000E+00
    1.5234  0.000000E+00  0.000000E+00
    1.5703  1.701589E-03  1.157407E-04
    1.6172  3.208765E-02  2.430556E-03
    1.6641  1.394052E-01  1.307870E-02
    1.7109  4.945186E-01  5.300926E-02
    1.7578  1.048348E+00  1.423611E-01
    1.8047  1.779198E+00  3.021991E-01
    1.8516  2.489488E+00  5.376157E-01
    1.8984  3.219137E+00  8.576389E-01
    1.9453  3.565950E+00  1.229861E+00
    1.9922  3.616859E+00  1.625810E+00
    2.0391  3.497900E+00  2.026968E+00
    2.0859  3.295210E+00  2.422454E+00
    2.1328  2.952717E+00  2.792940E+00
    2.1797  2.705209E+00  3.147454E+00
    2.2266  2.543418E+00  3.495255E+00
    2.2734  2.235844E+00  3.814005E+00
    2.3203  1.860389E+00  4.090278E+00
    2.3672  1.659393E+00  4.346759E+00
    2.4141  1.414132E+00  4.574074E+00
    2.4609  1.236060E+00  4.780556E+00
    2.5078  1.097545E+00  4.970949E+00
    2.5547  9.078330E-01  5.134375E+00
    2.6016  7.625773E-01  5.276736E+00
    2.6484  6.155787E-01  5.395833E+00
    2.6953  5.215760E-01  5.500347E+00
    2.7422  4.497687E-01  5.593634E+00
    2.7891  3.544032E-01  5.669676E+00
    2.8359  3.130452E-01  5.739120E+00
    2.8828  2.570008E-01  5.798032E+00
    2.9297  2.243984E-01  5.851157E+00
    2.9766  1.884964E-01  5.897222E+00
    3.0234  1.606632E-01  5.937731E+00
    3.0703  1.428863E-01  5.974884E+00
    3.1172  1.360303E-01  6.011343E+00
    3.1641  1.663993E-01  6.057292E+00
    3.2109  1.912870E-01  6.111690E+00
    3.2578  2.320799E-01  6.179630E+00
    3.3047  3.096891E-01  6.272917E+00
    3.3516  3.735574E-01  6.388657E+00
    3.3984  4.803137E-01  6.541667E+00
    3.4453  6.016648E-01  6.738657E+00
    3.4922  7.249732E-01  6.982523E+00
    3.5391  8.787685E-01  7.286111E+00
    3.5859  9.708103E-01  7.630440E+00
    3.6328  1.115072E+00  8.036343E+00
    3.6797  1.219484E+00  8.491782E+00
    3.7266  1.237344E+00  8.965741E+00
    3.7734  1.317011E+00  9.482986E+00
    3.8203  1.372007E+00  1.003530E+01
    3.8672  1.260384E+00  1.055521E+01
    3.9141  1.234211E+00  1.107674E+01
    3.9609  1.137505E+00  1.156898E+01
    4.0078  1.037122E+00  1.202847E+01
    4.0547  8.928103E-01  1.243333E+01
    4.1016  7.819755E-01  1.279618E+01
    4.1484  7.002768E-01  1.312859E+01
    4.1953  6.308349E-01  1.343484E+01
    4.2422  6.020480E-01  1.373368E+01
    4.2891  5.830299E-01  1.402951E+01
    4.3359  6.329873E-01  1.435775E+01
    4.3828  7.486231E-01  1.475440E+01
    4.4297  8.560406E-01  1.521771E+01
    4.4766  1.031060E+00  1.578762E+01
    4.5234  1.220621E+00  1.647650E+01
    4.5703  1.435577E+00  1.730359E+01
    4.6172  1.577822E+00  1.823137E+01
    4.6641  1.784302E+00  1.930197E+01
    4.7109  1.890401E+00  2.045914E+01
    4.7578  1.992919E+00  2.170347E+01
    4.8047  2.107275E+00  2.304525E+01
    4.8516  2.066395E+00  2.438681E+01
    4.8984  2.078101E+00  2.576215E+01
    4.9453  2.058968E+00  2.715104E+01
    4.9922  1.936297E+00  2.848206E+01
    5.0391  1.778151E+00  2.972743E+01
    5.0859  1.639593E+00  3.089722E+01
    5.1328  1.458951E+00  3.195741E+01
    5.1797  1.286426E+00  3.290937E+01
    5.2266  1.124744E+00  3.375683E+01
    5.2734  9.974015E-01  3.452188E+01
    5.3203  8.424800E-01  3.517963E+01
    5.3672  6.990584E-01  3.573507E+01
    5.4141  5.719085E-01  3.619745E+01
    5.4609  4.706717E-01  3.658461E+01
    5.5078  3.904892E-01  3.691134E+01
    5.5547  3.095348E-01  3.717477E+01
    5.6016  2.448649E-01  3.738669E+01
    5.6484  2.035967E-01  3.756586E+01
    5.6953  1.710224E-01  3.771887E+01
    5.7422  1.476250E-01  3.785312E+01
    5.7891  1.381070E-01  3.798079E+01
    5.8359  1.453843E-01  3.811736E+01
    5.8828  1.656294E-01  3.827546E+01
    5.9297  1.878442E-01  3.845764E+01
    5.9766  2.430605E-01  3.869711E+01

g(r)  :O_      O_      

        r      g(r)         n(r)

    1.9453  0.000000E+00  0.000000E+00
    1.9922  0.000000E+00  0.000000E+00
    2.0391  6.055222E-03  6.944444E-04
    2.0859  1.157229E-02  2.083333E-03
    2.1328  2.029359E-02  4.629630E-03
    2.1797  1.943017E-02  7.175926E-03
    2.2266  5.755487E-02  1.504630E-02
    2.2734  6.170086E-02  2.384259E-02
    2.3203  1.215838E-01  4.189815E-02
    2.3672  1.407788E-01  6.365741E-02
    2.4141  2.476890E-01  1.034722E-01
    2.4609  3.575151E-01  1.631944E-01
    2.5078  4.723778E-01  2.451389E-01
    2.5547  6.403695E-01  3.604167E-01
    2.6016  8.183756E-01  5.131944E-01
    2.6484  1.038527E+00  7.141204E-01
    2.6953  1.342351E+00  9.831019E-01
    2.7422  1.542383E+00  1.303009E+00
    2.7891  1.821104E+00  1.693750E+00
    2.8359  2.066098E+00  2.152083E+00
    2.8828  2.166077E+00  2.648611E+00
    2.9297  2.441494E+00  3.226620E+00
    2.9766  2.536650E+00  3.846528E+00
    3.0234  2.622023E+00  4.507639E+00
    3.0703  2.706381E+00  5.211343E+00
    3.1172  2.610054E+00  5.910880E+00
    3.1641  2.534970E+00  6.610880E+00
    3.2109  2.374401E+00  7.286111E+00
    3.2578  2.210887E+00  7.933333E+00
    3.3047  1.979551E+00  8.529630E+00
    3.3516  1.786351E+00  9.083102E+00
    3.3984  1.546305E+00  9.575694E+00
    3.4453  1.337661E+00  1.001366E+01
    3.4922  1.209780E+00  1.042060E+01
    3.5391  9.561591E-01  1.075093E+01
    3.5859  8.223334E-01  1.104259E+01
    3.6328  7.045905E-01  1.129907E+01
    3.6797  6.222931E-01  1.153148E+01
    3.7266  5.293837E-01  1.173426E+01
    3.7734  4.815387E-01  1.192338E+01
    3.8203  4.559938E-01  1.210694E+01
    3.8672  4.523018E-01  1.229352E+01
    3.9141  4.240033E-01  1.247269E+01
    3.9609  4.669842E-01  1.267477E+01
    4.0078  4.294782E-01  1.286505E+01
    4.0547  4.507442E-01  1.306944E+01
    4.1016  4.973714E-01  1.330023E+01
    4.1484  4.974111E-01  1.353634E+01
    4.1953  5.535898E-01  1.380509E+01
    4.2422  5.577455E-01  1.408194E+01
    4.2891  5.556576E-01  1.436389E+01
    4.3359  5.508507E-01  1.464954E+01
    4.3828  5.675292E-01  1.495023E+01
    4.4297  5.619972E-01  1.525440E+01
    4.4766  5.456827E-01  1.555602E+01
    4.5234  5.442756E-01  1.586319E+01
    4.5703  5.813825E-01  1.619815E+01
    4.6172  5.960136E-01  1.654861E+01
    4.6641  6.149573E-01  1.691759E+01
    4.7109  6.322765E-01  1.730463E+01
    4.7578  6.984764E-01  1.774074E+01
    4.8047  7.121799E-01  1.819421E+01
    4.8516  7.936838E-01  1.870949E+01
    4.8984  8.628588E-01  1.928056E+01
    4.9453  9.852160E-01  1.994514E+01
    4.9922  1.084326E+00  2.069051E+01
    5.0391  1.197773E+00  2.152940E+01
    5.0859  1.256584E+00  2.242593E+01
    5.1328  1.362431E+00  2.341597E+01
    5.1797  1.425782E+00  2.447106E+01
    5.2266  1.496484E+00  2.559861E+01
    5.2734  1.537296E+00  2.677778E+01
    5.3203  1.622993E+00  2.804491E+01
    5.3672  1.621279E+00  2.933310E+01
    5.4141  1.585310E+00  3.061481E+01
    5.4609  1.564403E+00  3.190162E+01
    5.5078  1.506350E+00  3.316204E+01
    5.5547  1.455194E+00  3.440046E+01
    5.6016  1.384670E+00  3.559884E+01
    5.6484  1.329692E+00  3.676898E+01
    5.6953  1.244505E+00  3.788241E+01
    5.7422  1.183291E+00  3.895856E+01
    5.7891  1.095340E+00  3.997106E+01
    5.8359  1.041099E+00  4.094907E+01
    5.8828  9.690411E-01  4.187407E+01
    5.9297  9.487685E-01  4.279421E+01
    5.9766  9.144431E-01  4.369514E+01

g(r)  :O_      O_S     

        r      g(r)         n(r)

    2.0859  0.000000E+00  0.000000E+00
    2.1328  0.000000E+00  0.000000E+00
    2.1797  2.649568E-03  3.472222E-04
    2.2266  5.924767E-03  1.157407E-03
    2.2734  9.742240E-03  2.546296E-03
    2.3203  2.026397E-02  5.555556E-03
    2.3672  4.867353E-02  1.307870E-02
    2.4141  9.144334E-02  2.777778E-02
    2.4609  1.552004E-01  5.370370E-02
    2.5078  2.408593E-01  9.548611E-02
    2.5547  3.587612E-01  1.600694E-01
    2.6016  5.679031E-01  2.660880E-01
    2.6484  8.106017E-01  4.229167E-01
    2.6953  1.129792E+00  6.493056E-01
    2.7422  1.402318E+00  9.401620E-01
    2.7891  1.762846E+00  1.318403E+00
    2.8359  2.128707E+00  1.790625E+00
    2.8828  2.471550E+00  2.357176E+00
    2.9297  2.743137E+00  3.006597E+00
    2.9766  2.991315E+00  3.737616E+00
    3.0234  3.027353E+00  4.500926E+00
    3.0703  3.054472E+00  5.295139E+00
    3.1172  3.031100E+00  6.107523E+00
    3.1641  2.884534E+00  6.904051E+00
    3.2109  2.608422E+00  7.645833E+00
    3.2578  2.337009E+00  8.329977E+00
    3.3047  2.068309E+00  8.953009E+00
    3.3516  1.811380E+00  9.514236E+00
    3.3984  1.508156E+00  9.994676E+00
    3.4453  1.268375E+00  1.040995E+01
    3.4922  1.026042E+00  1.075509E+01
    3.5391  8.399057E-01  1.104525E+01
    3.5859  6.934359E-01  1.129120E+01
    3.6328  5.748645E-01  1.150046E+01
    3.6797  4.626910E-01  1.167326E+01
    3.7266  3.985486E-01  1.182593E+01
    3.7734  3.604173E-01  1.196748E+01
    3.8203  3.585273E-01  1.211181E+01
    3.8672  3.720547E-01  1.226528E+01
    3.9141  3.886697E-01  1.242951E+01
    3.9609  4.306097E-01  1.261586E+01
    4.0078  4.383603E-01  1.281007E+01
    4.0547  4.474261E-01  1.301296E+01
    4.1016  4.863963E-01  1.323866E+01
    4.1484  5.269144E-01  1.348877E+01
    4.1953  5.667024E-01  1.376389E+01
    4.2422  5.654401E-01  1.404456E+01
    4.2891  5.670627E-01  1.433229E+01
    4.3359  5.885710E-01  1.463750E+01
    4.3828  5.788886E-01  1.494421E+01
    4.4297  5.739728E-01  1.525486E+01
    4.4766  5.682973E-01  1.556898E+01
    4.5234  5.360725E-01  1.587153E+01
    4.5703  5.502442E-01  1.618854E+01
    4.6172  5.405064E-01  1.650637E+01
    4.6641  5.513011E-01  1.683715E+01
    4.7109  5.734732E-01  1.718819E+01
    4.7578  5.726098E-01  1.754572E+01
    4.8047  6.332912E-01  1.794896E+01
    4.8516  7.129249E-01  1.841181E+01
    4.8984  7.971038E-01  1.893935E+01
    4.9453  9.208733E-01  1.956053E+01
    4.9922  1.007211E+00  2.025289E+01
    5.0391  1.155633E+00  2.106227E+01
    5.0859  1.297951E+00  2.198831E+01
    5.1328  1.405435E+00  2.300961E+01
    5.1797  1.540896E+00  2.414988E+01
    5.2266  1.609542E+00  2.536262E+01
    5.2734  1.688491E+00  2.665775E+01
    5.3203  1.712682E+00  2.799491E+01
    5.3672  1.739999E+00  2.937743E+01
    5.4141  1.732618E+00  3.077824E+01
    5.4609  1.693292E+00  3.217106E+01
    5.5078  1.608987E+00  3.351736E+01
    5.5547  1.522922E+00  3.481343E+01
    5.6016  1.408341E+00  3.603229E+01
    5.6484  1.318249E+00  3.719236E+01
    5.6953  1.240236E+00  3.830197E+01
    5.7422  1.121059E+00  3.932153E+01
    5.7891  1.034363E+00  4.027766E+01
    5.8359  9.695160E-01  4.118843E+01
    5.8828  9.298769E-01  4.207604E+01
    5.9297  9.037766E-01  4.295255E+01
    5.9766  8.696843E-01  4.380937E+01

g(r)  :O_S     O_S     

        r      g(r)         n(r)

    2.3203  0.000000E+00  0.000000E+00
    2.3672  0.000000E+00  0.000000E+00
    2.4141  1.440053E-03  2.314815E-04
    2.4609  1.940005E-02  3.472222E-03
    2.5078  4.403522E-02  1.111111E-02
    2.5547  7.586706E-02  2.476852E-02
    2.6016  2.021140E-01  6.250000E-02
    2.6484  3.876531E-01  1.375000E-01
    2.6953  6.665545E-01  2.710648E-01
    2.7422  1.139488E+00  5.074074E-01
    2.7891  1.670065E+00  8.657407E-01
    2.8359  2.131838E+00  1.338657E+00
    2.8828  2.655843E+00  1.947454E+00
    2.9297  3.192422E+00  2.703241E+00
    2.9766  3.572907E+00  3.576389E+00
    3.0234  3.608954E+00  4.486343E+00
    3.0703  3.684774E+00  5.444444E+00
    3.1172  3.463374E+00  6.372685E+00
    3.1641  3.294455E+00  7.282407E+00
    3.2109  2.914074E+00  8.111111E+00
    3.2578  2.459177E+00  8.831019E+00
    3.3047  2.131706E+00  9.473148E+00
    3.3516  1.695950E+00  9.998611E+00
    3.3984  1.400976E+00  1.044491E+01
    3.4453  1.085259E+00  1.080023E+01
    3.4922  8.553789E-01  1.108796E+01
    3.5391  6.894799E-01  1.132616E+01
    3.5859  5.090636E-01  1.150671E+01
    3.6328  3.904500E-01  1.164884E+01
    3.6797  3.272617E-01  1.177106E+01
    3.7266  2.828214E-01  1.187940E+01
    3.7734  2.634612E-01  1.198287E+01
    3.8203  2.955622E-01  1.210185E+01
    3.8672  2.839512E-01  1.221898E+01
    3.9141  3.336150E-01  1.235995E+01
    3.9609  3.797924E-01  1.252431E+01
    4.0078  3.908147E-01  1.269745E+01
    4.0547  4.813723E-01  1.291574E+01
    4.1016  5.218159E-01  1.315787E+01
    4.1484  5.578807E-01  1.342269E+01
    4.1953  5.669408E-01  1.369792E+01
    4.2422  6.337593E-01  1.401250E+01
    4.2891  5.775554E-01  1.430556E+01
    4.3359  6.307553E-01  1.463264E+01
    4.3828  6.313162E-01  1.496713E+01
    4.4297  5.945024E-01  1.528889E+01
    4.4766  5.699725E-01  1.560394E+01
    4.5234  5.729864E-01  1.592731E+01
    4.5703  5.448201E-01  1.624120E+01
    4.6172  5.003522E-01  1.653542E+01
    4.6641  4.826296E-01  1.682500E+01
    4.7109  4.651316E-01  1.710972E+01
    4.7578  4.886369E-01  1.741481E+01
    4.8047  5.187753E-01  1.774514E+01
    4.8516  5.565770E-01  1.810648E+01
    4.8984  6.774858E-01  1.855486E+01
    4.9453  7.717697E-01  1.907546E+01
    4.9922  9.223507E-01  1.970949E+01
    5.0391  1.111510E+00  2.048796E+01
    5.0859  1.268913E+00  2.139329E+01
    5.1328  1.438564E+00  2.243866E+01
    5.1797  1.656322E+00  2.366435E+01
    5.2266  1.753015E+00  2.498519E+01
    5.2734  1.889178E+00  2.643426E+01
    5.3203  1.944983E+00  2.795278E+01
    5.3672  1.952236E+00  2.950394E+01
    5.4141  1.888801E+00  3.103102E+01
    5.4609  1.892536E+00  3.258773E+01
    5.5078  1.735692E+00  3.404005E+01
    5.5547  1.581946E+00  3.538634E+01
    5.6016  1.461700E+00  3.665139E+01
    5.6484  1.298127E+00  3.779375E+01
    5.6953  1.153689E+00  3.882593E+01
    5.7422  1.005886E+00  3.974074E+01
    5.7891  9.325666E-01  4.060278E+01
    5.8359  8.811765E-01  4.143056E+01
    5.8828  8.339670E-01  4.222662E+01
    5.9297  8.127187E-01  4.301481E+01
    5.9766  8.183467E-01  4.382106E+01

 time elapsed since job start =        1054.525 seconds

